LAMMPS (29 Aug 2024)
OMP_NUM_THREADS environment is not set. Defaulting to 1 thread. (src/comm.cpp:98)
  using 1 OpenMP thread(s) per MPI task
units metal
atom_style atomic
atom_modify map array sort 0 0
boundary p p p
box tilt large

The 'box' command has been removed and will be ignored

region cell prism    0 5.91399681065986 0 3.23667042185359 0 98.01096332258837     -2.6530783266936782e-17 0.0 0.0     units box
create_box 1 cell
Created triclinic box = (0 0 0) to (5.9139968 3.2366704 98.010963) with tilt (-2.6530783e-17 0 0)
  1 by 1 by 1 MPI processor grid
echo none
Created 48 atoms
  using lattice units in triclinic box = (0 0 0) to (5.9139968 3.2366704 98.010963) with tilt (-2.6530783e-17 0 0)
  create_atoms CPU = 0.000 seconds
Setting atom values ...
  1 settings made for type
Setting atom values ...
  1 settings made for type
Setting atom values ...
  1 settings made for type
Setting atom values ...
  1 settings made for type
Setting atom values ...
  1 settings made for type
Setting atom values ...
  1 settings made for type
Setting atom values ...
  1 settings made for type
Setting atom values ...
  1 settings made for type
Setting atom values ...
  1 settings made for type
Setting atom values ...
  1 settings made for type
Setting atom values ...
  1 settings made for type
Setting atom values ...
  1 settings made for type
Setting atom values ...
  1 settings made for type
Setting atom values ...
  1 settings made for type
Setting atom values ...
  1 settings made for type
Setting atom values ...
  1 settings made for type
Setting atom values ...
  1 settings made for type
Setting atom values ...
  1 settings made for type
Setting atom values ...
  1 settings made for type
Setting atom values ...
  1 settings made for type
Setting atom values ...
  1 settings made for type
Setting atom values ...
  1 settings made for type
Setting atom values ...
  1 settings made for type
Setting atom values ...
  1 settings made for type
Setting atom values ...
  1 settings made for type
Setting atom values ...
  1 settings made for type
Setting atom values ...
  1 settings made for type
Setting atom values ...
  1 settings made for type
Setting atom values ...
  1 settings made for type
Setting atom values ...
  1 settings made for type
Setting atom values ...
  1 settings made for type
Setting atom values ...
  1 settings made for type
Setting atom values ...
  1 settings made for type
Setting atom values ...
  1 settings made for type
Setting atom values ...
  1 settings made for type
Setting atom values ...
  1 settings made for type
Setting atom values ...
  1 settings made for type
Setting atom values ...
  1 settings made for type
Setting atom values ...
  1 settings made for type
Setting atom values ...
  1 settings made for type
Setting atom values ...
  1 settings made for type
Setting atom values ...
  1 settings made for type
Setting atom values ...
  1 settings made for type
Setting atom values ...
  1 settings made for type
Setting atom values ...
  1 settings made for type
Setting atom values ...
  1 settings made for type
Setting atom values ...
  1 settings made for type
Setting atom values ...
  1 settings made for type
pair_style meam
pair_coeff * * <HOME>/projects/beta-sn-elasticity/surface_gb/meam_potentials/library.Sn.Etesami2018.meam Sn <HOME>/projects/beta-sn-elasticity/surface_gb/meam_potentials/Sn.Etesami2018.meam Sn
compute pe_peratom all pe/atom
mass 1 118.709999969462515423401782754809
variable pxx equal pxx
variable pyy equal pyy
variable pzz equal pzz
variable pxy equal pxy
variable pxz equal pxz
variable pyz equal pyz
thermo_style custom pe pxx emol ecoul
variable fx atom fx
variable fy atom fy
variable fz atom fz
variable pe equal pe
neigh_modify delay 0 every 1 check yes
echo none
run 0
WARNING: No fixes with time integration, atoms won't move (src/verlet.cpp:60)
Neighbor list info ...
  update: every = 1 steps, delay = 0 steps, check = yes
  max neighbors/atom: 2000, page size: 100000
  master list distance cutoff = 7.5
  ghost atom cutoff = 7.5
  binsize = 3.75, bins = 2 1 27
  2 neighbor lists, perpetual/occasional/extra = 2 0 0
  (1) pair meam, perpetual
      attributes: full, newton on
      pair build: full/bin/atomonly
      stencil: full/bin/3d
      bin: standard
  (2) pair meam, perpetual, half/full from (1)
      attributes: half, newton on
      pair build: halffull/newton/tri
      stencil: none
      bin: none
Per MPI rank memory allocation (min/avg/max) = 8.646 | 8.646 | 8.646 Mbytes
    PotEng          Pxx           E_mol          E_coul    
-144.43416      7287.6228      0              0            
Loop time of 5.8e-07 on 1 procs for 0 steps with 48 atoms

172.4% CPU use with 1 MPI tasks x 1 OpenMP threads

MPI task timing breakdown:
Section |  min time  |  avg time  |  max time  |%varavg| %total
---------------------------------------------------------------
Pair    | 0          | 0          | 0          |   0.0 |  0.00
Neigh   | 0          | 0          | 0          |   0.0 |  0.00
Comm    | 0          | 0          | 0          |   0.0 |  0.00
Output  | 0          | 0          | 0          |   0.0 |  0.00
Modify  | 0          | 0          | 0          |   0.0 |  0.00
Other   |            | 5.8e-07    |            |       |100.00

Nlocal:             48 ave          48 max          48 min
Histogram: 1 0 0 0 0 0 0 0 0 0
Nghost:            924 ave         924 max         924 min
Histogram: 1 0 0 0 0 0 0 0 0 0
Neighs:           1476 ave        1476 max        1476 min
Histogram: 1 0 0 0 0 0 0 0 0 0
FullNghs:         2952 ave        2952 max        2952 min
Histogram: 1 0 0 0 0 0 0 0 0 0

Total # of neighbors = 2952
Ave neighs/atom = 61.5
Neighbor list builds = 0
Dangerous builds = 0
set atom * x 0.0 y 0.0 z 0.0
Setting atom values ...
  48 settings made for x
  48 settings made for y
  48 settings made for z
change_box all     x final 0 5.91399681065986 y final 0 3.23667042185359 z final 0 98.01096332258837      xy final -2.6530783266936782e-17 xz final 0.0 yz final 0.0 units box
Changing box ...
  triclinic box = (0 0 0) to (5.9139968 3.2366704 98.010963) with tilt (-2.6530783e-17 0 0)
  triclinic box = (0 0 0) to (5.9139968 3.2366704 98.010963) with tilt (-2.6530783e-17 0 0)
  triclinic box = (0 0 0) to (5.9139968 3.2366704 98.010963) with tilt (-2.6530783e-17 0 0)
  triclinic box = (0 0 0) to (5.9139968 3.2366704 98.010963) with tilt (-2.6530783e-17 0 0)
  triclinic box = (0 0 0) to (5.9139968 3.2366704 98.010963) with tilt (-2.6530783e-17 0 0)
  triclinic box = (0 0 0) to (5.9139968 3.2366704 98.010963) with tilt (-2.6530783e-17 0 0)
echo none
run 0
WARNING: No fixes with time integration, atoms won't move (src/verlet.cpp:60)
Per MPI rank memory allocation (min/avg/max) = 8.771 | 8.771 | 8.771 Mbytes
    PotEng          Pxx           E_mol          E_coul    
-144.60402      7762.1499      0              0            
Loop time of 5.46e-07 on 1 procs for 0 steps with 48 atoms

183.2% CPU use with 1 MPI tasks x 1 OpenMP threads

MPI task timing breakdown:
Section |  min time  |  avg time  |  max time  |%varavg| %total
---------------------------------------------------------------
Pair    | 0          | 0          | 0          |   0.0 |  0.00
Neigh   | 0          | 0          | 0          |   0.0 |  0.00
Comm    | 0          | 0          | 0          |   0.0 |  0.00
Output  | 0          | 0          | 0          |   0.0 |  0.00
Modify  | 0          | 0          | 0          |   0.0 |  0.00
Other   |            | 5.46e-07   |            |       |100.00

Nlocal:             48 ave          48 max          48 min
Histogram: 1 0 0 0 0 0 0 0 0 0
Nghost:            924 ave         924 max         924 min
Histogram: 1 0 0 0 0 0 0 0 0 0
Neighs:           1476 ave        1476 max        1476 min
Histogram: 1 0 0 0 0 0 0 0 0 0
FullNghs:         2952 ave        2952 max        2952 min
Histogram: 1 0 0 0 0 0 0 0 0 0

Total # of neighbors = 2952
Ave neighs/atom = 61.5
Neighbor list builds = 0
Dangerous builds = 0
set atom * x 0.0 y 0.0 z 0.0
Setting atom values ...
  48 settings made for x
  48 settings made for y
  48 settings made for z
change_box all     x final 0 5.91399681065986 y final 0 3.23667042185359 z final 0 98.01096332258837      xy final -2.6530783266936782e-17 xz final 0.0 yz final 0.0 units box
Changing box ...
  triclinic box = (0 0 0) to (5.9139968 3.2366704 98.010963) with tilt (-2.6530783e-17 0 0)
  triclinic box = (0 0 0) to (5.9139968 3.2366704 98.010963) with tilt (-2.6530783e-17 0 0)
  triclinic box = (0 0 0) to (5.9139968 3.2366704 98.010963) with tilt (-2.6530783e-17 0 0)
  triclinic box = (0 0 0) to (5.9139968 3.2366704 98.010963) with tilt (-2.6530783e-17 0 0)
  triclinic box = (0 0 0) to (5.9139968 3.2366704 98.010963) with tilt (-2.6530783e-17 0 0)
  triclinic box = (0 0 0) to (5.9139968 3.2366704 98.010963) with tilt (-2.6530783e-17 0 0)
echo none
run 0
WARNING: No fixes with time integration, atoms won't move (src/verlet.cpp:60)
Per MPI rank memory allocation (min/avg/max) = 8.771 | 8.771 | 8.771 Mbytes
    PotEng          Pxx           E_mol          E_coul    
-144.7267       8261.8458      0              0            
Loop time of 5.64e-07 on 1 procs for 0 steps with 48 atoms

177.3% CPU use with 1 MPI tasks x 1 OpenMP threads

MPI task timing breakdown:
Section |  min time  |  avg time  |  max time  |%varavg| %total
---------------------------------------------------------------
Pair    | 0          | 0          | 0          |   0.0 |  0.00
Neigh   | 0          | 0          | 0          |   0.0 |  0.00
Comm    | 0          | 0          | 0          |   0.0 |  0.00
Output  | 0          | 0          | 0          |   0.0 |  0.00
Modify  | 0          | 0          | 0          |   0.0 |  0.00
Other   |            | 5.64e-07   |            |       |100.00

Nlocal:             48 ave          48 max          48 min
Histogram: 1 0 0 0 0 0 0 0 0 0
Nghost:            924 ave         924 max         924 min
Histogram: 1 0 0 0 0 0 0 0 0 0
Neighs:           1476 ave        1476 max        1476 min
Histogram: 1 0 0 0 0 0 0 0 0 0
FullNghs:         2952 ave        2952 max        2952 min
Histogram: 1 0 0 0 0 0 0 0 0 0

Total # of neighbors = 2952
Ave neighs/atom = 61.5
Neighbor list builds = 0
Dangerous builds = 0
set atom * x 0.0 y 0.0 z 0.0
Setting atom values ...
  48 settings made for x
  48 settings made for y
  48 settings made for z
change_box all     x final 0 5.91399681065986 y final 0 3.23667042185359 z final 0 98.01096332258837      xy final -2.6530783266936782e-17 xz final 0.0 yz final 0.0 units box
Changing box ...
  triclinic box = (0 0 0) to (5.9139968 3.2366704 98.010963) with tilt (-2.6530783e-17 0 0)
  triclinic box = (0 0 0) to (5.9139968 3.2366704 98.010963) with tilt (-2.6530783e-17 0 0)
  triclinic box = (0 0 0) to (5.9139968 3.2366704 98.010963) with tilt (-2.6530783e-17 0 0)
  triclinic box = (0 0 0) to (5.9139968 3.2366704 98.010963) with tilt (-2.6530783e-17 0 0)
  triclinic box = (0 0 0) to (5.9139968 3.2366704 98.010963) with tilt (-2.6530783e-17 0 0)
  triclinic box = (0 0 0) to (5.9139968 3.2366704 98.010963) with tilt (-2.6530783e-17 0 0)
echo none
run 0
WARNING: No fixes with time integration, atoms won't move (src/verlet.cpp:60)
Per MPI rank memory allocation (min/avg/max) = 8.771 | 8.771 | 8.771 Mbytes
    PotEng          Pxx           E_mol          E_coul    
-144.76961      8421.2187      0              0            
Loop time of 5.32e-07 on 1 procs for 0 steps with 48 atoms

188.0% CPU use with 1 MPI tasks x 1 OpenMP threads

MPI task timing breakdown:
Section |  min time  |  avg time  |  max time  |%varavg| %total
---------------------------------------------------------------
Pair    | 0          | 0          | 0          |   0.0 |  0.00
Neigh   | 0          | 0          | 0          |   0.0 |  0.00
Comm    | 0          | 0          | 0          |   0.0 |  0.00
Output  | 0          | 0          | 0          |   0.0 |  0.00
Modify  | 0          | 0          | 0          |   0.0 |  0.00
Other   |            | 5.32e-07   |            |       |100.00

Nlocal:             48 ave          48 max          48 min
Histogram: 1 0 0 0 0 0 0 0 0 0
Nghost:            924 ave         924 max         924 min
Histogram: 1 0 0 0 0 0 0 0 0 0
Neighs:           1476 ave        1476 max        1476 min
Histogram: 1 0 0 0 0 0 0 0 0 0
FullNghs:         2952 ave        2952 max        2952 min
Histogram: 1 0 0 0 0 0 0 0 0 0

Total # of neighbors = 2952
Ave neighs/atom = 61.5
Neighbor list builds = 0
Dangerous builds = 0
set atom * x 0.0 y 0.0 z 0.0
Setting atom values ...
  48 settings made for x
  48 settings made for y
  48 settings made for z
change_box all     x final 0 5.91399681065986 y final 0 3.23667042185359 z final 0 98.01096332258837      xy final -2.6530783266936782e-17 xz final 0.0 yz final 0.0 units box
Changing box ...
  triclinic box = (0 0 0) to (5.9139968 3.2366704 98.010963) with tilt (-2.6530783e-17 0 0)
  triclinic box = (0 0 0) to (5.9139968 3.2366704 98.010963) with tilt (-2.6530783e-17 0 0)
  triclinic box = (0 0 0) to (5.9139968 3.2366704 98.010963) with tilt (-2.6530783e-17 0 0)
  triclinic box = (0 0 0) to (5.9139968 3.2366704 98.010963) with tilt (-2.6530783e-17 0 0)
  triclinic box = (0 0 0) to (5.9139968 3.2366704 98.010963) with tilt (-2.6530783e-17 0 0)
  triclinic box = (0 0 0) to (5.9139968 3.2366704 98.010963) with tilt (-2.6530783e-17 0 0)
echo none
run 0
WARNING: No fixes with time integration, atoms won't move (src/verlet.cpp:60)
Per MPI rank memory allocation (min/avg/max) = 8.771 | 8.771 | 8.771 Mbytes
    PotEng          Pxx           E_mol          E_coul    
-144.81169      8462.6463      0              0            
Loop time of 5.4e-07 on 1 procs for 0 steps with 48 atoms

185.2% CPU use with 1 MPI tasks x 1 OpenMP threads

MPI task timing breakdown:
Section |  min time  |  avg time  |  max time  |%varavg| %total
---------------------------------------------------------------
Pair    | 0          | 0          | 0          |   0.0 |  0.00
Neigh   | 0          | 0          | 0          |   0.0 |  0.00
Comm    | 0          | 0          | 0          |   0.0 |  0.00
Output  | 0          | 0          | 0          |   0.0 |  0.00
Modify  | 0          | 0          | 0          |   0.0 |  0.00
Other   |            | 5.4e-07    |            |       |100.00

Nlocal:             48 ave          48 max          48 min
Histogram: 1 0 0 0 0 0 0 0 0 0
Nghost:            924 ave         924 max         924 min
Histogram: 1 0 0 0 0 0 0 0 0 0
Neighs:           1476 ave        1476 max        1476 min
Histogram: 1 0 0 0 0 0 0 0 0 0
FullNghs:         2952 ave        2952 max        2952 min
Histogram: 1 0 0 0 0 0 0 0 0 0

Total # of neighbors = 2952
Ave neighs/atom = 61.5
Neighbor list builds = 0
Dangerous builds = 0
set atom * x 0.0 y 0.0 z 0.0
Setting atom values ...
  48 settings made for x
  48 settings made for y
  48 settings made for z
change_box all     x final 0 5.91399681065986 y final 0 3.23667042185359 z final 0 98.01096332258837      xy final -2.6530783266936782e-17 xz final 0.0 yz final 0.0 units box
Changing box ...
  triclinic box = (0 0 0) to (5.9139968 3.2366704 98.010963) with tilt (-2.6530783e-17 0 0)
  triclinic box = (0 0 0) to (5.9139968 3.2366704 98.010963) with tilt (-2.6530783e-17 0 0)
  triclinic box = (0 0 0) to (5.9139968 3.2366704 98.010963) with tilt (-2.6530783e-17 0 0)
  triclinic box = (0 0 0) to (5.9139968 3.2366704 98.010963) with tilt (-2.6530783e-17 0 0)
  triclinic box = (0 0 0) to (5.9139968 3.2366704 98.010963) with tilt (-2.6530783e-17 0 0)
  triclinic box = (0 0 0) to (5.9139968 3.2366704 98.010963) with tilt (-2.6530783e-17 0 0)
echo none
run 0
WARNING: No fixes with time integration, atoms won't move (src/verlet.cpp:60)
Per MPI rank memory allocation (min/avg/max) = 8.771 | 8.771 | 8.771 Mbytes
    PotEng          Pxx           E_mol          E_coul    
-144.8432       8332.5579      0              0            
Loop time of 5.28e-07 on 1 procs for 0 steps with 48 atoms

189.4% CPU use with 1 MPI tasks x 1 OpenMP threads

MPI task timing breakdown:
Section |  min time  |  avg time  |  max time  |%varavg| %total
---------------------------------------------------------------
Pair    | 0          | 0          | 0          |   0.0 |  0.00
Neigh   | 0          | 0          | 0          |   0.0 |  0.00
Comm    | 0          | 0          | 0          |   0.0 |  0.00
Output  | 0          | 0          | 0          |   0.0 |  0.00
Modify  | 0          | 0          | 0          |   0.0 |  0.00
Other   |            | 5.28e-07   |            |       |100.00

Nlocal:             48 ave          48 max          48 min
Histogram: 1 0 0 0 0 0 0 0 0 0
Nghost:            924 ave         924 max         924 min
Histogram: 1 0 0 0 0 0 0 0 0 0
Neighs:           1476 ave        1476 max        1476 min
Histogram: 1 0 0 0 0 0 0 0 0 0
FullNghs:         2952 ave        2952 max        2952 min
Histogram: 1 0 0 0 0 0 0 0 0 0

Total # of neighbors = 2952
Ave neighs/atom = 61.5
Neighbor list builds = 0
Dangerous builds = 0
set atom * x 0.0 y 0.0 z 0.0
Setting atom values ...
  48 settings made for x
  48 settings made for y
  48 settings made for z
change_box all     x final 0 5.91399681065986 y final 0 3.23667042185359 z final 0 98.01096332258837      xy final -2.6530783266936782e-17 xz final 0.0 yz final 0.0 units box
Changing box ...
  triclinic box = (0 0 0) to (5.9139968 3.2366704 98.010963) with tilt (-2.6530783e-17 0 0)
  triclinic box = (0 0 0) to (5.9139968 3.2366704 98.010963) with tilt (-2.6530783e-17 0 0)
  triclinic box = (0 0 0) to (5.9139968 3.2366704 98.010963) with tilt (-2.6530783e-17 0 0)
  triclinic box = (0 0 0) to (5.9139968 3.2366704 98.010963) with tilt (-2.6530783e-17 0 0)
  triclinic box = (0 0 0) to (5.9139968 3.2366704 98.010963) with tilt (-2.6530783e-17 0 0)
  triclinic box = (0 0 0) to (5.9139968 3.2366704 98.010963) with tilt (-2.6530783e-17 0 0)
echo none
run 0
WARNING: No fixes with time integration, atoms won't move (src/verlet.cpp:60)
Per MPI rank memory allocation (min/avg/max) = 8.771 | 8.771 | 8.771 Mbytes
    PotEng          Pxx           E_mol          E_coul    
-144.87796      8007.1749      0              0            
Loop time of 5.23e-07 on 1 procs for 0 steps with 48 atoms

191.2% CPU use with 1 MPI tasks x 1 OpenMP threads

MPI task timing breakdown:
Section |  min time  |  avg time  |  max time  |%varavg| %total
---------------------------------------------------------------
Pair    | 0          | 0          | 0          |   0.0 |  0.00
Neigh   | 0          | 0          | 0          |   0.0 |  0.00
Comm    | 0          | 0          | 0          |   0.0 |  0.00
Output  | 0          | 0          | 0          |   0.0 |  0.00
Modify  | 0          | 0          | 0          |   0.0 |  0.00
Other   |            | 5.23e-07   |            |       |100.00

Nlocal:             48 ave          48 max          48 min
Histogram: 1 0 0 0 0 0 0 0 0 0
Nghost:            924 ave         924 max         924 min
Histogram: 1 0 0 0 0 0 0 0 0 0
Neighs:           1476 ave        1476 max        1476 min
Histogram: 1 0 0 0 0 0 0 0 0 0
FullNghs:         2952 ave        2952 max        2952 min
Histogram: 1 0 0 0 0 0 0 0 0 0

Total # of neighbors = 2952
Ave neighs/atom = 61.5
Neighbor list builds = 0
Dangerous builds = 0
set atom * x 0.0 y 0.0 z 0.0
Setting atom values ...
  48 settings made for x
  48 settings made for y
  48 settings made for z
change_box all     x final 0 5.91399681065986 y final 0 3.23667042185359 z final 0 98.01096332258837      xy final -2.6530783266936782e-17 xz final 0.0 yz final 0.0 units box
Changing box ...
  triclinic box = (0 0 0) to (5.9139968 3.2366704 98.010963) with tilt (-2.6530783e-17 0 0)
  triclinic box = (0 0 0) to (5.9139968 3.2366704 98.010963) with tilt (-2.6530783e-17 0 0)
  triclinic box = (0 0 0) to (5.9139968 3.2366704 98.010963) with tilt (-2.6530783e-17 0 0)
  triclinic box = (0 0 0) to (5.9139968 3.2366704 98.010963) with tilt (-2.6530783e-17 0 0)
  triclinic box = (0 0 0) to (5.9139968 3.2366704 98.010963) with tilt (-2.6530783e-17 0 0)
  triclinic box = (0 0 0) to (5.9139968 3.2366704 98.010963) with tilt (-2.6530783e-17 0 0)
echo none
run 0
WARNING: No fixes with time integration, atoms won't move (src/verlet.cpp:60)
Per MPI rank memory allocation (min/avg/max) = 8.771 | 8.771 | 8.771 Mbytes
    PotEng          Pxx           E_mol          E_coul    
-144.90883      7567.3219      0              0            
Loop time of 5.31e-07 on 1 procs for 0 steps with 48 atoms

0.0% CPU use with 1 MPI tasks x 1 OpenMP threads

MPI task timing breakdown:
Section |  min time  |  avg time  |  max time  |%varavg| %total
---------------------------------------------------------------
Pair    | 0          | 0          | 0          |   0.0 |  0.00
Neigh   | 0          | 0          | 0          |   0.0 |  0.00
Comm    | 0          | 0          | 0          |   0.0 |  0.00
Output  | 0          | 0          | 0          |   0.0 |  0.00
Modify  | 0          | 0          | 0          |   0.0 |  0.00
Other   |            | 5.31e-07   |            |       |100.00

Nlocal:             48 ave          48 max          48 min
Histogram: 1 0 0 0 0 0 0 0 0 0
Nghost:            924 ave         924 max         924 min
Histogram: 1 0 0 0 0 0 0 0 0 0
Neighs:           1476 ave        1476 max        1476 min
Histogram: 1 0 0 0 0 0 0 0 0 0
FullNghs:         2952 ave        2952 max        2952 min
Histogram: 1 0 0 0 0 0 0 0 0 0

Total # of neighbors = 2952
Ave neighs/atom = 61.5
Neighbor list builds = 0
Dangerous builds = 0
set atom * x 0.0 y 0.0 z 0.0
Setting atom values ...
  48 settings made for x
  48 settings made for y
  48 settings made for z
change_box all     x final 0 5.91399681065986 y final 0 3.23667042185359 z final 0 98.01096332258837      xy final -2.6530783266936782e-17 xz final 0.0 yz final 0.0 units box
Changing box ...
  triclinic box = (0 0 0) to (5.9139968 3.2366704 98.010963) with tilt (-2.6530783e-17 0 0)
  triclinic box = (0 0 0) to (5.9139968 3.2366704 98.010963) with tilt (-2.6530783e-17 0 0)
  triclinic box = (0 0 0) to (5.9139968 3.2366704 98.010963) with tilt (-2.6530783e-17 0 0)
  triclinic box = (0 0 0) to (5.9139968 3.2366704 98.010963) with tilt (-2.6530783e-17 0 0)
  triclinic box = (0 0 0) to (5.9139968 3.2366704 98.010963) with tilt (-2.6530783e-17 0 0)
  triclinic box = (0 0 0) to (5.9139968 3.2366704 98.010963) with tilt (-2.6530783e-17 0 0)
echo none
run 0
WARNING: No fixes with time integration, atoms won't move (src/verlet.cpp:60)
Per MPI rank memory allocation (min/avg/max) = 8.771 | 8.771 | 8.771 Mbytes
    PotEng          Pxx           E_mol          E_coul    
-144.93765      7057.2945      0              0            
Loop time of 5.89e-07 on 1 procs for 0 steps with 48 atoms

169.8% CPU use with 1 MPI tasks x 1 OpenMP threads

MPI task timing breakdown:
Section |  min time  |  avg time  |  max time  |%varavg| %total
---------------------------------------------------------------
Pair    | 0          | 0          | 0          |   0.0 |  0.00
Neigh   | 0          | 0          | 0          |   0.0 |  0.00
Comm    | 0          | 0          | 0          |   0.0 |  0.00
Output  | 0          | 0          | 0          |   0.0 |  0.00
Modify  | 0          | 0          | 0          |   0.0 |  0.00
Other   |            | 5.89e-07   |            |       |100.00

Nlocal:             48 ave          48 max          48 min
Histogram: 1 0 0 0 0 0 0 0 0 0
Nghost:            924 ave         924 max         924 min
Histogram: 1 0 0 0 0 0 0 0 0 0
Neighs:           1476 ave        1476 max        1476 min
Histogram: 1 0 0 0 0 0 0 0 0 0
FullNghs:         2952 ave        2952 max        2952 min
Histogram: 1 0 0 0 0 0 0 0 0 0

Total # of neighbors = 2952
Ave neighs/atom = 61.5
Neighbor list builds = 0
Dangerous builds = 0
set atom * x 0.0 y 0.0 z 0.0
Setting atom values ...
  48 settings made for x
  48 settings made for y
  48 settings made for z
change_box all     x final 0 5.91399681065986 y final 0 3.23667042185359 z final 0 98.01096332258837      xy final -2.6530783266936782e-17 xz final 0.0 yz final 0.0 units box
Changing box ...
  triclinic box = (0 0 0) to (5.9139968 3.2366704 98.010963) with tilt (-2.6530783e-17 0 0)
  triclinic box = (0 0 0) to (5.9139968 3.2366704 98.010963) with tilt (-2.6530783e-17 0 0)
  triclinic box = (0 0 0) to (5.9139968 3.2366704 98.010963) with tilt (-2.6530783e-17 0 0)
  triclinic box = (0 0 0) to (5.9139968 3.2366704 98.010963) with tilt (-2.6530783e-17 0 0)
  triclinic box = (0 0 0) to (5.9139968 3.2366704 98.010963) with tilt (-2.6530783e-17 0 0)
  triclinic box = (0 0 0) to (5.9139968 3.2366704 98.010963) with tilt (-2.6530783e-17 0 0)
echo none
run 0
WARNING: No fixes with time integration, atoms won't move (src/verlet.cpp:60)
Per MPI rank memory allocation (min/avg/max) = 8.771 | 8.771 | 8.771 Mbytes
    PotEng          Pxx           E_mol          E_coul    
-144.96358      6567.1         0              0            
Loop time of 5.51e-07 on 1 procs for 0 steps with 48 atoms

181.5% CPU use with 1 MPI tasks x 1 OpenMP threads

MPI task timing breakdown:
Section |  min time  |  avg time  |  max time  |%varavg| %total
---------------------------------------------------------------
Pair    | 0          | 0          | 0          |   0.0 |  0.00
Neigh   | 0          | 0          | 0          |   0.0 |  0.00
Comm    | 0          | 0          | 0          |   0.0 |  0.00
Output  | 0          | 0          | 0          |   0.0 |  0.00
Modify  | 0          | 0          | 0          |   0.0 |  0.00
Other   |            | 5.51e-07   |            |       |100.00

Nlocal:             48 ave          48 max          48 min
Histogram: 1 0 0 0 0 0 0 0 0 0
Nghost:            924 ave         924 max         924 min
Histogram: 1 0 0 0 0 0 0 0 0 0
Neighs:           1476 ave        1476 max        1476 min
Histogram: 1 0 0 0 0 0 0 0 0 0
FullNghs:         2952 ave        2952 max        2952 min
Histogram: 1 0 0 0 0 0 0 0 0 0

Total # of neighbors = 2952
Ave neighs/atom = 61.5
Neighbor list builds = 0
Dangerous builds = 0
set atom * x 0.0 y 0.0 z 0.0
Setting atom values ...
  48 settings made for x
  48 settings made for y
  48 settings made for z
change_box all     x final 0 5.91399681065986 y final 0 3.23667042185359 z final 0 98.01096332258837      xy final -2.6530783266936782e-17 xz final 0.0 yz final 0.0 units box
Changing box ...
  triclinic box = (0 0 0) to (5.9139968 3.2366704 98.010963) with tilt (-2.6530783e-17 0 0)
  triclinic box = (0 0 0) to (5.9139968 3.2366704 98.010963) with tilt (-2.6530783e-17 0 0)
  triclinic box = (0 0 0) to (5.9139968 3.2366704 98.010963) with tilt (-2.6530783e-17 0 0)
  triclinic box = (0 0 0) to (5.9139968 3.2366704 98.010963) with tilt (-2.6530783e-17 0 0)
  triclinic box = (0 0 0) to (5.9139968 3.2366704 98.010963) with tilt (-2.6530783e-17 0 0)
  triclinic box = (0 0 0) to (5.9139968 3.2366704 98.010963) with tilt (-2.6530783e-17 0 0)
echo none
run 0
WARNING: No fixes with time integration, atoms won't move (src/verlet.cpp:60)
Per MPI rank memory allocation (min/avg/max) = 8.771 | 8.771 | 8.771 Mbytes
    PotEng          Pxx           E_mol          E_coul    
-144.98781      6117.0903      0              0            
Loop time of 5.41e-07 on 1 procs for 0 steps with 48 atoms

184.8% CPU use with 1 MPI tasks x 1 OpenMP threads

MPI task timing breakdown:
Section |  min time  |  avg time  |  max time  |%varavg| %total
---------------------------------------------------------------
Pair    | 0          | 0          | 0          |   0.0 |  0.00
Neigh   | 0          | 0          | 0          |   0.0 |  0.00
Comm    | 0          | 0          | 0          |   0.0 |  0.00
Output  | 0          | 0          | 0          |   0.0 |  0.00
Modify  | 0          | 0          | 0          |   0.0 |  0.00
Other   |            | 5.41e-07   |            |       |100.00

Nlocal:             48 ave          48 max          48 min
Histogram: 1 0 0 0 0 0 0 0 0 0
Nghost:            924 ave         924 max         924 min
Histogram: 1 0 0 0 0 0 0 0 0 0
Neighs:           1476 ave        1476 max        1476 min
Histogram: 1 0 0 0 0 0 0 0 0 0
FullNghs:         2952 ave        2952 max        2952 min
Histogram: 1 0 0 0 0 0 0 0 0 0

Total # of neighbors = 2952
Ave neighs/atom = 61.5
Neighbor list builds = 0
Dangerous builds = 0
set atom * x 0.0 y 0.0 z 0.0
Setting atom values ...
  48 settings made for x
  48 settings made for y
  48 settings made for z
change_box all     x final 0 5.91399681065986 y final 0 3.23667042185359 z final 0 98.01096332258837      xy final -2.6530783266936782e-17 xz final 0.0 yz final 0.0 units box
Changing box ...
  triclinic box = (0 0 0) to (5.9139968 3.2366704 98.010963) with tilt (-2.6530783e-17 0 0)
  triclinic box = (0 0 0) to (5.9139968 3.2366704 98.010963) with tilt (-2.6530783e-17 0 0)
  triclinic box = (0 0 0) to (5.9139968 3.2366704 98.010963) with tilt (-2.6530783e-17 0 0)
  triclinic box = (0 0 0) to (5.9139968 3.2366704 98.010963) with tilt (-2.6530783e-17 0 0)
  triclinic box = (0 0 0) to (5.9139968 3.2366704 98.010963) with tilt (-2.6530783e-17 0 0)
  triclinic box = (0 0 0) to (5.9139968 3.2366704 98.010963) with tilt (-2.6530783e-17 0 0)
echo none
run 0
WARNING: No fixes with time integration, atoms won't move (src/verlet.cpp:60)
Per MPI rank memory allocation (min/avg/max) = 8.771 | 8.771 | 8.771 Mbytes
    PotEng          Pxx           E_mol          E_coul    
-145.00621      5777.5766      0              0            
Loop time of 5.42e-07 on 1 procs for 0 steps with 48 atoms

184.5% CPU use with 1 MPI tasks x 1 OpenMP threads

MPI task timing breakdown:
Section |  min time  |  avg time  |  max time  |%varavg| %total
---------------------------------------------------------------
Pair    | 0          | 0          | 0          |   0.0 |  0.00
Neigh   | 0          | 0          | 0          |   0.0 |  0.00
Comm    | 0          | 0          | 0          |   0.0 |  0.00
Output  | 0          | 0          | 0          |   0.0 |  0.00
Modify  | 0          | 0          | 0          |   0.0 |  0.00
Other   |            | 5.42e-07   |            |       |100.00

Nlocal:             48 ave          48 max          48 min
Histogram: 1 0 0 0 0 0 0 0 0 0
Nghost:            921 ave         921 max         921 min
Histogram: 1 0 0 0 0 0 0 0 0 0
Neighs:           1476 ave        1476 max        1476 min
Histogram: 1 0 0 0 0 0 0 0 0 0
FullNghs:         2952 ave        2952 max        2952 min
Histogram: 1 0 0 0 0 0 0 0 0 0

Total # of neighbors = 2952
Ave neighs/atom = 61.5
Neighbor list builds = 0
Dangerous builds = 0
set atom * x 0.0 y 0.0 z 0.0
Setting atom values ...
  48 settings made for x
  48 settings made for y
  48 settings made for z
change_box all     x final 0 5.91399681065986 y final 0 3.23667042185359 z final 0 98.01096332258837      xy final -2.6530783266936782e-17 xz final 0.0 yz final 0.0 units box
Changing box ...
  triclinic box = (0 0 0) to (5.9139968 3.2366704 98.010963) with tilt (-2.6530783e-17 0 0)
  triclinic box = (0 0 0) to (5.9139968 3.2366704 98.010963) with tilt (-2.6530783e-17 0 0)
  triclinic box = (0 0 0) to (5.9139968 3.2366704 98.010963) with tilt (-2.6530783e-17 0 0)
  triclinic box = (0 0 0) to (5.9139968 3.2366704 98.010963) with tilt (-2.6530783e-17 0 0)
  triclinic box = (0 0 0) to (5.9139968 3.2366704 98.010963) with tilt (-2.6530783e-17 0 0)
  triclinic box = (0 0 0) to (5.9139968 3.2366704 98.010963) with tilt (-2.6530783e-17 0 0)
echo none
run 0
WARNING: No fixes with time integration, atoms won't move (src/verlet.cpp:60)
Per MPI rank memory allocation (min/avg/max) = 8.771 | 8.771 | 8.771 Mbytes
    PotEng          Pxx           E_mol          E_coul    
-145.02006      5507.7816      0              0            
Loop time of 5.46e-07 on 1 procs for 0 steps with 48 atoms

183.2% CPU use with 1 MPI tasks x 1 OpenMP threads

MPI task timing breakdown:
Section |  min time  |  avg time  |  max time  |%varavg| %total
---------------------------------------------------------------
Pair    | 0          | 0          | 0          |   0.0 |  0.00
Neigh   | 0          | 0          | 0          |   0.0 |  0.00
Comm    | 0          | 0          | 0          |   0.0 |  0.00
Output  | 0          | 0          | 0          |   0.0 |  0.00
Modify  | 0          | 0          | 0          |   0.0 |  0.00
Other   |            | 5.46e-07   |            |       |100.00

Nlocal:             48 ave          48 max          48 min
Histogram: 1 0 0 0 0 0 0 0 0 0
Nghost:            921 ave         921 max         921 min
Histogram: 1 0 0 0 0 0 0 0 0 0
Neighs:           1476 ave        1476 max        1476 min
Histogram: 1 0 0 0 0 0 0 0 0 0
FullNghs:         2952 ave        2952 max        2952 min
Histogram: 1 0 0 0 0 0 0 0 0 0

Total # of neighbors = 2952
Ave neighs/atom = 61.5
Neighbor list builds = 0
Dangerous builds = 0
set atom * x 0.0 y 0.0 z 0.0
Setting atom values ...
  48 settings made for x
  48 settings made for y
  48 settings made for z
change_box all     x final 0 5.91399681065986 y final 0 3.23667042185359 z final 0 98.01096332258837      xy final -2.6530783266936782e-17 xz final 0.0 yz final 0.0 units box
Changing box ...
  triclinic box = (0 0 0) to (5.9139968 3.2366704 98.010963) with tilt (-2.6530783e-17 0 0)
  triclinic box = (0 0 0) to (5.9139968 3.2366704 98.010963) with tilt (-2.6530783e-17 0 0)
  triclinic box = (0 0 0) to (5.9139968 3.2366704 98.010963) with tilt (-2.6530783e-17 0 0)
  triclinic box = (0 0 0) to (5.9139968 3.2366704 98.010963) with tilt (-2.6530783e-17 0 0)
  triclinic box = (0 0 0) to (5.9139968 3.2366704 98.010963) with tilt (-2.6530783e-17 0 0)
  triclinic box = (0 0 0) to (5.9139968 3.2366704 98.010963) with tilt (-2.6530783e-17 0 0)
echo none
run 0
WARNING: No fixes with time integration, atoms won't move (src/verlet.cpp:60)
Per MPI rank memory allocation (min/avg/max) = 8.771 | 8.771 | 8.771 Mbytes
    PotEng          Pxx           E_mol          E_coul    
-145.03161      5239.6695      0              0            
Loop time of 4.95e-07 on 1 procs for 0 steps with 48 atoms

202.0% CPU use with 1 MPI tasks x 1 OpenMP threads

MPI task timing breakdown:
Section |  min time  |  avg time  |  max time  |%varavg| %total
---------------------------------------------------------------
Pair    | 0          | 0          | 0          |   0.0 |  0.00
Neigh   | 0          | 0          | 0          |   0.0 |  0.00
Comm    | 0          | 0          | 0          |   0.0 |  0.00
Output  | 0          | 0          | 0          |   0.0 |  0.00
Modify  | 0          | 0          | 0          |   0.0 |  0.00
Other   |            | 4.95e-07   |            |       |100.00

Nlocal:             48 ave          48 max          48 min
Histogram: 1 0 0 0 0 0 0 0 0 0
Nghost:            921 ave         921 max         921 min
Histogram: 1 0 0 0 0 0 0 0 0 0
Neighs:           1476 ave        1476 max        1476 min
Histogram: 1 0 0 0 0 0 0 0 0 0
FullNghs:         2952 ave        2952 max        2952 min
Histogram: 1 0 0 0 0 0 0 0 0 0

Total # of neighbors = 2952
Ave neighs/atom = 61.5
Neighbor list builds = 0
Dangerous builds = 0
set atom * x 0.0 y 0.0 z 0.0
Setting atom values ...
  48 settings made for x
  48 settings made for y
  48 settings made for z
change_box all     x final 0 5.91399681065986 y final 0 3.23667042185359 z final 0 98.01096332258837      xy final -2.6530783266936782e-17 xz final 0.0 yz final 0.0 units box
Changing box ...
  triclinic box = (0 0 0) to (5.9139968 3.2366704 98.010963) with tilt (-2.6530783e-17 0 0)
  triclinic box = (0 0 0) to (5.9139968 3.2366704 98.010963) with tilt (-2.6530783e-17 0 0)
  triclinic box = (0 0 0) to (5.9139968 3.2366704 98.010963) with tilt (-2.6530783e-17 0 0)
  triclinic box = (0 0 0) to (5.9139968 3.2366704 98.010963) with tilt (-2.6530783e-17 0 0)
  triclinic box = (0 0 0) to (5.9139968 3.2366704 98.010963) with tilt (-2.6530783e-17 0 0)
  triclinic box = (0 0 0) to (5.9139968 3.2366704 98.010963) with tilt (-2.6530783e-17 0 0)
echo none
run 0
WARNING: No fixes with time integration, atoms won't move (src/verlet.cpp:60)
Per MPI rank memory allocation (min/avg/max) = 8.771 | 8.771 | 8.771 Mbytes
    PotEng          Pxx           E_mol          E_coul    
-145.04029      4973.857       0              0            
Loop time of 5.2e-07 on 1 procs for 0 steps with 48 atoms

192.3% CPU use with 1 MPI tasks x 1 OpenMP threads

MPI task timing breakdown:
Section |  min time  |  avg time  |  max time  |%varavg| %total
---------------------------------------------------------------
Pair    | 0          | 0          | 0          |   0.0 |  0.00
Neigh   | 0          | 0          | 0          |   0.0 |  0.00
Comm    | 0          | 0          | 0          |   0.0 |  0.00
Output  | 0          | 0          | 0          |   0.0 |  0.00
Modify  | 0          | 0          | 0          |   0.0 |  0.00
Other   |            | 5.2e-07    |            |       |100.00

Nlocal:             48 ave          48 max          48 min
Histogram: 1 0 0 0 0 0 0 0 0 0
Nghost:            921 ave         921 max         921 min
Histogram: 1 0 0 0 0 0 0 0 0 0
Neighs:           1476 ave        1476 max        1476 min
Histogram: 1 0 0 0 0 0 0 0 0 0
FullNghs:         2952 ave        2952 max        2952 min
Histogram: 1 0 0 0 0 0 0 0 0 0

Total # of neighbors = 2952
Ave neighs/atom = 61.5
Neighbor list builds = 0
Dangerous builds = 0
set atom * x 0.0 y 0.0 z 0.0
Setting atom values ...
  48 settings made for x
  48 settings made for y
  48 settings made for z
change_box all     x final 0 5.91399681065986 y final 0 3.23667042185359 z final 0 98.01096332258837      xy final -2.6530783266936782e-17 xz final 0.0 yz final 0.0 units box
Changing box ...
  triclinic box = (0 0 0) to (5.9139968 3.2366704 98.010963) with tilt (-2.6530783e-17 0 0)
  triclinic box = (0 0 0) to (5.9139968 3.2366704 98.010963) with tilt (-2.6530783e-17 0 0)
  triclinic box = (0 0 0) to (5.9139968 3.2366704 98.010963) with tilt (-2.6530783e-17 0 0)
  triclinic box = (0 0 0) to (5.9139968 3.2366704 98.010963) with tilt (-2.6530783e-17 0 0)
  triclinic box = (0 0 0) to (5.9139968 3.2366704 98.010963) with tilt (-2.6530783e-17 0 0)
  triclinic box = (0 0 0) to (5.9139968 3.2366704 98.010963) with tilt (-2.6530783e-17 0 0)
echo none
run 0
WARNING: No fixes with time integration, atoms won't move (src/verlet.cpp:60)
Per MPI rank memory allocation (min/avg/max) = 8.771 | 8.771 | 8.771 Mbytes
    PotEng          Pxx           E_mol          E_coul    
-145.04675      4706.5018      0              0            
Loop time of 5.7e-07 on 1 procs for 0 steps with 48 atoms

175.4% CPU use with 1 MPI tasks x 1 OpenMP threads

MPI task timing breakdown:
Section |  min time  |  avg time  |  max time  |%varavg| %total
---------------------------------------------------------------
Pair    | 0          | 0          | 0          |   0.0 |  0.00
Neigh   | 0          | 0          | 0          |   0.0 |  0.00
Comm    | 0          | 0          | 0          |   0.0 |  0.00
Output  | 0          | 0          | 0          |   0.0 |  0.00
Modify  | 0          | 0          | 0          |   0.0 |  0.00
Other   |            | 5.7e-07    |            |       |100.00

Nlocal:             48 ave          48 max          48 min
Histogram: 1 0 0 0 0 0 0 0 0 0
Nghost:            921 ave         921 max         921 min
Histogram: 1 0 0 0 0 0 0 0 0 0
Neighs:           1476 ave        1476 max        1476 min
Histogram: 1 0 0 0 0 0 0 0 0 0
FullNghs:         2952 ave        2952 max        2952 min
Histogram: 1 0 0 0 0 0 0 0 0 0

Total # of neighbors = 2952
Ave neighs/atom = 61.5
Neighbor list builds = 0
Dangerous builds = 0
set atom * x 0.0 y 0.0 z 0.0
Setting atom values ...
  48 settings made for x
  48 settings made for y
  48 settings made for z
change_box all     x final 0 5.91399681065986 y final 0 3.23667042185359 z final 0 98.01096332258837      xy final -2.6530783266936782e-17 xz final 0.0 yz final 0.0 units box
Changing box ...
  triclinic box = (0 0 0) to (5.9139968 3.2366704 98.010963) with tilt (-2.6530783e-17 0 0)
  triclinic box = (0 0 0) to (5.9139968 3.2366704 98.010963) with tilt (-2.6530783e-17 0 0)
  triclinic box = (0 0 0) to (5.9139968 3.2366704 98.010963) with tilt (-2.6530783e-17 0 0)
  triclinic box = (0 0 0) to (5.9139968 3.2366704 98.010963) with tilt (-2.6530783e-17 0 0)
  triclinic box = (0 0 0) to (5.9139968 3.2366704 98.010963) with tilt (-2.6530783e-17 0 0)
  triclinic box = (0 0 0) to (5.9139968 3.2366704 98.010963) with tilt (-2.6530783e-17 0 0)
echo none
run 0
WARNING: No fixes with time integration, atoms won't move (src/verlet.cpp:60)
Per MPI rank memory allocation (min/avg/max) = 8.771 | 8.771 | 8.771 Mbytes
    PotEng          Pxx           E_mol          E_coul    
-145.05144      4454.7934      0              0            
Loop time of 6.78e-07 on 1 procs for 0 steps with 48 atoms

442.5% CPU use with 1 MPI tasks x 1 OpenMP threads

MPI task timing breakdown:
Section |  min time  |  avg time  |  max time  |%varavg| %total
---------------------------------------------------------------
Pair    | 0          | 0          | 0          |   0.0 |  0.00
Neigh   | 0          | 0          | 0          |   0.0 |  0.00
Comm    | 0          | 0          | 0          |   0.0 |  0.00
Output  | 0          | 0          | 0          |   0.0 |  0.00
Modify  | 0          | 0          | 0          |   0.0 |  0.00
Other   |            | 6.78e-07   |            |       |100.00

Nlocal:             48 ave          48 max          48 min
Histogram: 1 0 0 0 0 0 0 0 0 0
Nghost:            921 ave         921 max         921 min
Histogram: 1 0 0 0 0 0 0 0 0 0
Neighs:           1480 ave        1480 max        1480 min
Histogram: 1 0 0 0 0 0 0 0 0 0
FullNghs:         2960 ave        2960 max        2960 min
Histogram: 1 0 0 0 0 0 0 0 0 0

Total # of neighbors = 2960
Ave neighs/atom = 61.666667
Neighbor list builds = 0
Dangerous builds = 0
set atom * x 0.0 y 0.0 z 0.0
Setting atom values ...
  48 settings made for x
  48 settings made for y
  48 settings made for z
change_box all     x final 0 5.91399681065986 y final 0 3.23667042185359 z final 0 98.01096332258837      xy final -2.6530783266936782e-17 xz final 0.0 yz final 0.0 units box
Changing box ...
  triclinic box = (0 0 0) to (5.9139968 3.2366704 98.010963) with tilt (-2.6530783e-17 0 0)
  triclinic box = (0 0 0) to (5.9139968 3.2366704 98.010963) with tilt (-2.6530783e-17 0 0)
  triclinic box = (0 0 0) to (5.9139968 3.2366704 98.010963) with tilt (-2.6530783e-17 0 0)
  triclinic box = (0 0 0) to (5.9139968 3.2366704 98.010963) with tilt (-2.6530783e-17 0 0)
  triclinic box = (0 0 0) to (5.9139968 3.2366704 98.010963) with tilt (-2.6530783e-17 0 0)
  triclinic box = (0 0 0) to (5.9139968 3.2366704 98.010963) with tilt (-2.6530783e-17 0 0)
echo none
run 0
WARNING: No fixes with time integration, atoms won't move (src/verlet.cpp:60)
Per MPI rank memory allocation (min/avg/max) = 8.771 | 8.771 | 8.771 Mbytes
    PotEng          Pxx           E_mol          E_coul    
-145.05513      4216.1552      0              0            
Loop time of 5.19e-07 on 1 procs for 0 steps with 48 atoms

192.7% CPU use with 1 MPI tasks x 1 OpenMP threads

MPI task timing breakdown:
Section |  min time  |  avg time  |  max time  |%varavg| %total
---------------------------------------------------------------
Pair    | 0          | 0          | 0          |   0.0 |  0.00
Neigh   | 0          | 0          | 0          |   0.0 |  0.00
Comm    | 0          | 0          | 0          |   0.0 |  0.00
Output  | 0          | 0          | 0          |   0.0 |  0.00
Modify  | 0          | 0          | 0          |   0.0 |  0.00
Other   |            | 5.19e-07   |            |       |100.00

Nlocal:             48 ave          48 max          48 min
Histogram: 1 0 0 0 0 0 0 0 0 0
Nghost:            921 ave         921 max         921 min
Histogram: 1 0 0 0 0 0 0 0 0 0
Neighs:           1480 ave        1480 max        1480 min
Histogram: 1 0 0 0 0 0 0 0 0 0
FullNghs:         2960 ave        2960 max        2960 min
Histogram: 1 0 0 0 0 0 0 0 0 0

Total # of neighbors = 2960
Ave neighs/atom = 61.666667
Neighbor list builds = 0
Dangerous builds = 0
set atom * x 0.0 y 0.0 z 0.0
Setting atom values ...
  48 settings made for x
  48 settings made for y
  48 settings made for z
change_box all     x final 0 5.91399681065986 y final 0 3.23667042185359 z final 0 98.01096332258837      xy final -2.6530783266936782e-17 xz final 0.0 yz final 0.0 units box
Changing box ...
  triclinic box = (0 0 0) to (5.9139968 3.2366704 98.010963) with tilt (-2.6530783e-17 0 0)
  triclinic box = (0 0 0) to (5.9139968 3.2366704 98.010963) with tilt (-2.6530783e-17 0 0)
  triclinic box = (0 0 0) to (5.9139968 3.2366704 98.010963) with tilt (-2.6530783e-17 0 0)
  triclinic box = (0 0 0) to (5.9139968 3.2366704 98.010963) with tilt (-2.6530783e-17 0 0)
  triclinic box = (0 0 0) to (5.9139968 3.2366704 98.010963) with tilt (-2.6530783e-17 0 0)
  triclinic box = (0 0 0) to (5.9139968 3.2366704 98.010963) with tilt (-2.6530783e-17 0 0)
echo none
run 0
WARNING: No fixes with time integration, atoms won't move (src/verlet.cpp:60)
Per MPI rank memory allocation (min/avg/max) = 8.771 | 8.771 | 8.771 Mbytes
    PotEng          Pxx           E_mol          E_coul    
-145.05803      3992.6842      0              0            
Loop time of 5.67e-07 on 1 procs for 0 steps with 48 atoms

176.4% CPU use with 1 MPI tasks x 1 OpenMP threads

MPI task timing breakdown:
Section |  min time  |  avg time  |  max time  |%varavg| %total
---------------------------------------------------------------
Pair    | 0          | 0          | 0          |   0.0 |  0.00
Neigh   | 0          | 0          | 0          |   0.0 |  0.00
Comm    | 0          | 0          | 0          |   0.0 |  0.00
Output  | 0          | 0          | 0          |   0.0 |  0.00
Modify  | 0          | 0          | 0          |   0.0 |  0.00
Other   |            | 5.67e-07   |            |       |100.00

Nlocal:             48 ave          48 max          48 min
Histogram: 1 0 0 0 0 0 0 0 0 0
Nghost:            921 ave         921 max         921 min
Histogram: 1 0 0 0 0 0 0 0 0 0
Neighs:           1480 ave        1480 max        1480 min
Histogram: 1 0 0 0 0 0 0 0 0 0
FullNghs:         2960 ave        2960 max        2960 min
Histogram: 1 0 0 0 0 0 0 0 0 0

Total # of neighbors = 2960
Ave neighs/atom = 61.666667
Neighbor list builds = 0
Dangerous builds = 0
set atom * x 0.0 y 0.0 z 0.0
Setting atom values ...
  48 settings made for x
  48 settings made for y
  48 settings made for z
change_box all     x final 0 5.91399681065986 y final 0 3.23667042185359 z final 0 98.01096332258837      xy final -2.6530783266936782e-17 xz final 0.0 yz final 0.0 units box
Changing box ...
  triclinic box = (0 0 0) to (5.9139968 3.2366704 98.010963) with tilt (-2.6530783e-17 0 0)
  triclinic box = (0 0 0) to (5.9139968 3.2366704 98.010963) with tilt (-2.6530783e-17 0 0)
  triclinic box = (0 0 0) to (5.9139968 3.2366704 98.010963) with tilt (-2.6530783e-17 0 0)
  triclinic box = (0 0 0) to (5.9139968 3.2366704 98.010963) with tilt (-2.6530783e-17 0 0)
  triclinic box = (0 0 0) to (5.9139968 3.2366704 98.010963) with tilt (-2.6530783e-17 0 0)
  triclinic box = (0 0 0) to (5.9139968 3.2366704 98.010963) with tilt (-2.6530783e-17 0 0)
echo none
run 0
WARNING: No fixes with time integration, atoms won't move (src/verlet.cpp:60)
Per MPI rank memory allocation (min/avg/max) = 8.771 | 8.771 | 8.771 Mbytes
    PotEng          Pxx           E_mol          E_coul    
-145.06004      3804.354       0              0            
Loop time of 4.87e-07 on 1 procs for 0 steps with 48 atoms

205.3% CPU use with 1 MPI tasks x 1 OpenMP threads

MPI task timing breakdown:
Section |  min time  |  avg time  |  max time  |%varavg| %total
---------------------------------------------------------------
Pair    | 0          | 0          | 0          |   0.0 |  0.00
Neigh   | 0          | 0          | 0          |   0.0 |  0.00
Comm    | 0          | 0          | 0          |   0.0 |  0.00
Output  | 0          | 0          | 0          |   0.0 |  0.00
Modify  | 0          | 0          | 0          |   0.0 |  0.00
Other   |            | 4.87e-07   |            |       |100.00

Nlocal:             48 ave          48 max          48 min
Histogram: 1 0 0 0 0 0 0 0 0 0
Nghost:            921 ave         921 max         921 min
Histogram: 1 0 0 0 0 0 0 0 0 0
Neighs:           1480 ave        1480 max        1480 min
Histogram: 1 0 0 0 0 0 0 0 0 0
FullNghs:         2960 ave        2960 max        2960 min
Histogram: 1 0 0 0 0 0 0 0 0 0

Total # of neighbors = 2960
Ave neighs/atom = 61.666667
Neighbor list builds = 0
Dangerous builds = 0
set atom * x 0.0 y 0.0 z 0.0
Setting atom values ...
  48 settings made for x
  48 settings made for y
  48 settings made for z
change_box all     x final 0 5.91399681065986 y final 0 3.23667042185359 z final 0 98.01096332258837      xy final -2.6530783266936782e-17 xz final 0.0 yz final 0.0 units box
Changing box ...
  triclinic box = (0 0 0) to (5.9139968 3.2366704 98.010963) with tilt (-2.6530783e-17 0 0)
  triclinic box = (0 0 0) to (5.9139968 3.2366704 98.010963) with tilt (-2.6530783e-17 0 0)
  triclinic box = (0 0 0) to (5.9139968 3.2366704 98.010963) with tilt (-2.6530783e-17 0 0)
  triclinic box = (0 0 0) to (5.9139968 3.2366704 98.010963) with tilt (-2.6530783e-17 0 0)
  triclinic box = (0 0 0) to (5.9139968 3.2366704 98.010963) with tilt (-2.6530783e-17 0 0)
  triclinic box = (0 0 0) to (5.9139968 3.2366704 98.010963) with tilt (-2.6530783e-17 0 0)
echo none
run 0
WARNING: No fixes with time integration, atoms won't move (src/verlet.cpp:60)
Per MPI rank memory allocation (min/avg/max) = 8.771 | 8.771 | 8.771 Mbytes
    PotEng          Pxx           E_mol          E_coul    
-145.06156      3630.1122      0              0            
Loop time of 4.71e-07 on 1 procs for 0 steps with 48 atoms

212.3% CPU use with 1 MPI tasks x 1 OpenMP threads

MPI task timing breakdown:
Section |  min time  |  avg time  |  max time  |%varavg| %total
---------------------------------------------------------------
Pair    | 0          | 0          | 0          |   0.0 |  0.00
Neigh   | 0          | 0          | 0          |   0.0 |  0.00
Comm    | 0          | 0          | 0          |   0.0 |  0.00
Output  | 0          | 0          | 0          |   0.0 |  0.00
Modify  | 0          | 0          | 0          |   0.0 |  0.00
Other   |            | 4.71e-07   |            |       |100.00

Nlocal:             48 ave          48 max          48 min
Histogram: 1 0 0 0 0 0 0 0 0 0
Nghost:            921 ave         921 max         921 min
Histogram: 1 0 0 0 0 0 0 0 0 0
Neighs:           1480 ave        1480 max        1480 min
Histogram: 1 0 0 0 0 0 0 0 0 0
FullNghs:         2960 ave        2960 max        2960 min
Histogram: 1 0 0 0 0 0 0 0 0 0

Total # of neighbors = 2960
Ave neighs/atom = 61.666667
Neighbor list builds = 0
Dangerous builds = 0
set atom * x 0.0 y 0.0 z 0.0
Setting atom values ...
  48 settings made for x
  48 settings made for y
  48 settings made for z
change_box all     x final 0 5.91399681065986 y final 0 3.23667042185359 z final 0 98.01096332258837      xy final -2.6530783266936782e-17 xz final 0.0 yz final 0.0 units box
Changing box ...
  triclinic box = (0 0 0) to (5.9139968 3.2366704 98.010963) with tilt (-2.6530783e-17 0 0)
  triclinic box = (0 0 0) to (5.9139968 3.2366704 98.010963) with tilt (-2.6530783e-17 0 0)
  triclinic box = (0 0 0) to (5.9139968 3.2366704 98.010963) with tilt (-2.6530783e-17 0 0)
  triclinic box = (0 0 0) to (5.9139968 3.2366704 98.010963) with tilt (-2.6530783e-17 0 0)
  triclinic box = (0 0 0) to (5.9139968 3.2366704 98.010963) with tilt (-2.6530783e-17 0 0)
  triclinic box = (0 0 0) to (5.9139968 3.2366704 98.010963) with tilt (-2.6530783e-17 0 0)
echo none
run 0
WARNING: No fixes with time integration, atoms won't move (src/verlet.cpp:60)
Per MPI rank memory allocation (min/avg/max) = 8.771 | 8.771 | 8.771 Mbytes
    PotEng          Pxx           E_mol          E_coul    
-145.06285      3447.5223      0              0            
Loop time of 5.06e-07 on 1 procs for 0 steps with 48 atoms

0.0% CPU use with 1 MPI tasks x 1 OpenMP threads

MPI task timing breakdown:
Section |  min time  |  avg time  |  max time  |%varavg| %total
---------------------------------------------------------------
Pair    | 0          | 0          | 0          |   0.0 |  0.00
Neigh   | 0          | 0          | 0          |   0.0 |  0.00
Comm    | 0          | 0          | 0          |   0.0 |  0.00
Output  | 0          | 0          | 0          |   0.0 |  0.00
Modify  | 0          | 0          | 0          |   0.0 |  0.00
Other   |            | 5.06e-07   |            |       |100.00

Nlocal:             48 ave          48 max          48 min
Histogram: 1 0 0 0 0 0 0 0 0 0
Nghost:            921 ave         921 max         921 min
Histogram: 1 0 0 0 0 0 0 0 0 0
Neighs:           1480 ave        1480 max        1480 min
Histogram: 1 0 0 0 0 0 0 0 0 0
FullNghs:         2960 ave        2960 max        2960 min
Histogram: 1 0 0 0 0 0 0 0 0 0

Total # of neighbors = 2960
Ave neighs/atom = 61.666667
Neighbor list builds = 0
Dangerous builds = 0
set atom * x 0.0 y 0.0 z 0.0
Setting atom values ...
  48 settings made for x
  48 settings made for y
  48 settings made for z
change_box all     x final 0 5.91399681065986 y final 0 3.23667042185359 z final 0 98.01096332258837      xy final -2.6530783266936782e-17 xz final 0.0 yz final 0.0 units box
Changing box ...
  triclinic box = (0 0 0) to (5.9139968 3.2366704 98.010963) with tilt (-2.6530783e-17 0 0)
  triclinic box = (0 0 0) to (5.9139968 3.2366704 98.010963) with tilt (-2.6530783e-17 0 0)
  triclinic box = (0 0 0) to (5.9139968 3.2366704 98.010963) with tilt (-2.6530783e-17 0 0)
  triclinic box = (0 0 0) to (5.9139968 3.2366704 98.010963) with tilt (-2.6530783e-17 0 0)
  triclinic box = (0 0 0) to (5.9139968 3.2366704 98.010963) with tilt (-2.6530783e-17 0 0)
  triclinic box = (0 0 0) to (5.9139968 3.2366704 98.010963) with tilt (-2.6530783e-17 0 0)
echo none
run 0
WARNING: No fixes with time integration, atoms won't move (src/verlet.cpp:60)
Per MPI rank memory allocation (min/avg/max) = 8.771 | 8.771 | 8.771 Mbytes
    PotEng          Pxx           E_mol          E_coul    
-145.06402      3249.1683      0              0            
Loop time of 4.95e-07 on 1 procs for 0 steps with 48 atoms

0.0% CPU use with 1 MPI tasks x 1 OpenMP threads

MPI task timing breakdown:
Section |  min time  |  avg time  |  max time  |%varavg| %total
---------------------------------------------------------------
Pair    | 0          | 0          | 0          |   0.0 |  0.00
Neigh   | 0          | 0          | 0          |   0.0 |  0.00
Comm    | 0          | 0          | 0          |   0.0 |  0.00
Output  | 0          | 0          | 0          |   0.0 |  0.00
Modify  | 0          | 0          | 0          |   0.0 |  0.00
Other   |            | 4.95e-07   |            |       |100.00

Nlocal:             48 ave          48 max          48 min
Histogram: 1 0 0 0 0 0 0 0 0 0
Nghost:            921 ave         921 max         921 min
Histogram: 1 0 0 0 0 0 0 0 0 0
Neighs:           1480 ave        1480 max        1480 min
Histogram: 1 0 0 0 0 0 0 0 0 0
FullNghs:         2960 ave        2960 max        2960 min
Histogram: 1 0 0 0 0 0 0 0 0 0

Total # of neighbors = 2960
Ave neighs/atom = 61.666667
Neighbor list builds = 0
Dangerous builds = 0
set atom * x 0.0 y 0.0 z 0.0
Setting atom values ...
  48 settings made for x
  48 settings made for y
  48 settings made for z
change_box all     x final 0 5.91399681065986 y final 0 3.23667042185359 z final 0 98.01096332258837      xy final -2.6530783266936782e-17 xz final 0.0 yz final 0.0 units box
Changing box ...
  triclinic box = (0 0 0) to (5.9139968 3.2366704 98.010963) with tilt (-2.6530783e-17 0 0)
  triclinic box = (0 0 0) to (5.9139968 3.2366704 98.010963) with tilt (-2.6530783e-17 0 0)
  triclinic box = (0 0 0) to (5.9139968 3.2366704 98.010963) with tilt (-2.6530783e-17 0 0)
  triclinic box = (0 0 0) to (5.9139968 3.2366704 98.010963) with tilt (-2.6530783e-17 0 0)
  triclinic box = (0 0 0) to (5.9139968 3.2366704 98.010963) with tilt (-2.6530783e-17 0 0)
  triclinic box = (0 0 0) to (5.9139968 3.2366704 98.010963) with tilt (-2.6530783e-17 0 0)
echo none
run 0
WARNING: No fixes with time integration, atoms won't move (src/verlet.cpp:60)
Per MPI rank memory allocation (min/avg/max) = 8.771 | 8.771 | 8.771 Mbytes
    PotEng          Pxx           E_mol          E_coul    
-145.06505      3047.8148      0              0            
Loop time of 5.04e-07 on 1 procs for 0 steps with 48 atoms

0.0% CPU use with 1 MPI tasks x 1 OpenMP threads

MPI task timing breakdown:
Section |  min time  |  avg time  |  max time  |%varavg| %total
---------------------------------------------------------------
Pair    | 0          | 0          | 0          |   0.0 |  0.00
Neigh   | 0          | 0          | 0          |   0.0 |  0.00
Comm    | 0          | 0          | 0          |   0.0 |  0.00
Output  | 0          | 0          | 0          |   0.0 |  0.00
Modify  | 0          | 0          | 0          |   0.0 |  0.00
Other   |            | 5.04e-07   |            |       |100.00

Nlocal:             48 ave          48 max          48 min
Histogram: 1 0 0 0 0 0 0 0 0 0
Nghost:            921 ave         921 max         921 min
Histogram: 1 0 0 0 0 0 0 0 0 0
Neighs:           1480 ave        1480 max        1480 min
Histogram: 1 0 0 0 0 0 0 0 0 0
FullNghs:         2960 ave        2960 max        2960 min
Histogram: 1 0 0 0 0 0 0 0 0 0

Total # of neighbors = 2960
Ave neighs/atom = 61.666667
Neighbor list builds = 0
Dangerous builds = 0
set atom * x 0.0 y 0.0 z 0.0
Setting atom values ...
  48 settings made for x
  48 settings made for y
  48 settings made for z
change_box all     x final 0 5.91399681065986 y final 0 3.23667042185359 z final 0 98.01096332258837      xy final -2.6530783266936782e-17 xz final 0.0 yz final 0.0 units box
Changing box ...
  triclinic box = (0 0 0) to (5.9139968 3.2366704 98.010963) with tilt (-2.6530783e-17 0 0)
  triclinic box = (0 0 0) to (5.9139968 3.2366704 98.010963) with tilt (-2.6530783e-17 0 0)
  triclinic box = (0 0 0) to (5.9139968 3.2366704 98.010963) with tilt (-2.6530783e-17 0 0)
  triclinic box = (0 0 0) to (5.9139968 3.2366704 98.010963) with tilt (-2.6530783e-17 0 0)
  triclinic box = (0 0 0) to (5.9139968 3.2366704 98.010963) with tilt (-2.6530783e-17 0 0)
  triclinic box = (0 0 0) to (5.9139968 3.2366704 98.010963) with tilt (-2.6530783e-17 0 0)
echo none
run 0
WARNING: No fixes with time integration, atoms won't move (src/verlet.cpp:60)
Per MPI rank memory allocation (min/avg/max) = 8.771 | 8.771 | 8.771 Mbytes
    PotEng          Pxx           E_mol          E_coul    
-145.06581      2886.8169      0              0            
Loop time of 5.11e-07 on 1 procs for 0 steps with 48 atoms

195.7% CPU use with 1 MPI tasks x 1 OpenMP threads

MPI task timing breakdown:
Section |  min time  |  avg time  |  max time  |%varavg| %total
---------------------------------------------------------------
Pair    | 0          | 0          | 0          |   0.0 |  0.00
Neigh   | 0          | 0          | 0          |   0.0 |  0.00
Comm    | 0          | 0          | 0          |   0.0 |  0.00
Output  | 0          | 0          | 0          |   0.0 |  0.00
Modify  | 0          | 0          | 0          |   0.0 |  0.00
Other   |            | 5.11e-07   |            |       |100.00

Nlocal:             48 ave          48 max          48 min
Histogram: 1 0 0 0 0 0 0 0 0 0
Nghost:            921 ave         921 max         921 min
Histogram: 1 0 0 0 0 0 0 0 0 0
Neighs:           1480 ave        1480 max        1480 min
Histogram: 1 0 0 0 0 0 0 0 0 0
FullNghs:         2960 ave        2960 max        2960 min
Histogram: 1 0 0 0 0 0 0 0 0 0

Total # of neighbors = 2960
Ave neighs/atom = 61.666667
Neighbor list builds = 0
Dangerous builds = 0
set atom * x 0.0 y 0.0 z 0.0
Setting atom values ...
  48 settings made for x
  48 settings made for y
  48 settings made for z
change_box all     x final 0 5.91399681065986 y final 0 3.23667042185359 z final 0 98.01096332258837      xy final -2.6530783266936782e-17 xz final 0.0 yz final 0.0 units box
Changing box ...
  triclinic box = (0 0 0) to (5.9139968 3.2366704 98.010963) with tilt (-2.6530783e-17 0 0)
  triclinic box = (0 0 0) to (5.9139968 3.2366704 98.010963) with tilt (-2.6530783e-17 0 0)
  triclinic box = (0 0 0) to (5.9139968 3.2366704 98.010963) with tilt (-2.6530783e-17 0 0)
  triclinic box = (0 0 0) to (5.9139968 3.2366704 98.010963) with tilt (-2.6530783e-17 0 0)
  triclinic box = (0 0 0) to (5.9139968 3.2366704 98.010963) with tilt (-2.6530783e-17 0 0)
  triclinic box = (0 0 0) to (5.9139968 3.2366704 98.010963) with tilt (-2.6530783e-17 0 0)
echo none
run 0
WARNING: No fixes with time integration, atoms won't move (src/verlet.cpp:60)
Per MPI rank memory allocation (min/avg/max) = 8.771 | 8.771 | 8.771 Mbytes
    PotEng          Pxx           E_mol          E_coul    
-145.06629      2788.8804      0              0            
Loop time of 5.28e-07 on 1 procs for 0 steps with 48 atoms

189.4% CPU use with 1 MPI tasks x 1 OpenMP threads

MPI task timing breakdown:
Section |  min time  |  avg time  |  max time  |%varavg| %total
---------------------------------------------------------------
Pair    | 0          | 0          | 0          |   0.0 |  0.00
Neigh   | 0          | 0          | 0          |   0.0 |  0.00
Comm    | 0          | 0          | 0          |   0.0 |  0.00
Output  | 0          | 0          | 0          |   0.0 |  0.00
Modify  | 0          | 0          | 0          |   0.0 |  0.00
Other   |            | 5.28e-07   |            |       |100.00

Nlocal:             48 ave          48 max          48 min
Histogram: 1 0 0 0 0 0 0 0 0 0
Nghost:            921 ave         921 max         921 min
Histogram: 1 0 0 0 0 0 0 0 0 0
Neighs:           1480 ave        1480 max        1480 min
Histogram: 1 0 0 0 0 0 0 0 0 0
FullNghs:         2960 ave        2960 max        2960 min
Histogram: 1 0 0 0 0 0 0 0 0 0

Total # of neighbors = 2960
Ave neighs/atom = 61.666667
Neighbor list builds = 0
Dangerous builds = 0
set atom * x 0.0 y 0.0 z 0.0
Setting atom values ...
  48 settings made for x
  48 settings made for y
  48 settings made for z
change_box all     x final 0 5.91399681065986 y final 0 3.23667042185359 z final 0 98.01096332258837      xy final -2.6530783266936782e-17 xz final 0.0 yz final 0.0 units box
Changing box ...
  triclinic box = (0 0 0) to (5.9139968 3.2366704 98.010963) with tilt (-2.6530783e-17 0 0)
  triclinic box = (0 0 0) to (5.9139968 3.2366704 98.010963) with tilt (-2.6530783e-17 0 0)
  triclinic box = (0 0 0) to (5.9139968 3.2366704 98.010963) with tilt (-2.6530783e-17 0 0)
  triclinic box = (0 0 0) to (5.9139968 3.2366704 98.010963) with tilt (-2.6530783e-17 0 0)
  triclinic box = (0 0 0) to (5.9139968 3.2366704 98.010963) with tilt (-2.6530783e-17 0 0)
  triclinic box = (0 0 0) to (5.9139968 3.2366704 98.010963) with tilt (-2.6530783e-17 0 0)
echo none
run 0
WARNING: No fixes with time integration, atoms won't move (src/verlet.cpp:60)
Per MPI rank memory allocation (min/avg/max) = 8.771 | 8.771 | 8.771 Mbytes
    PotEng          Pxx           E_mol          E_coul    
-145.06665      2726.8068      0              0            
Loop time of 4.77e-07 on 1 procs for 0 steps with 48 atoms

209.6% CPU use with 1 MPI tasks x 1 OpenMP threads

MPI task timing breakdown:
Section |  min time  |  avg time  |  max time  |%varavg| %total
---------------------------------------------------------------
Pair    | 0          | 0          | 0          |   0.0 |  0.00
Neigh   | 0          | 0          | 0          |   0.0 |  0.00
Comm    | 0          | 0          | 0          |   0.0 |  0.00
Output  | 0          | 0          | 0          |   0.0 |  0.00
Modify  | 0          | 0          | 0          |   0.0 |  0.00
Other   |            | 4.77e-07   |            |       |100.00

Nlocal:             48 ave          48 max          48 min
Histogram: 1 0 0 0 0 0 0 0 0 0
Nghost:            921 ave         921 max         921 min
Histogram: 1 0 0 0 0 0 0 0 0 0
Neighs:           1480 ave        1480 max        1480 min
Histogram: 1 0 0 0 0 0 0 0 0 0
FullNghs:         2960 ave        2960 max        2960 min
Histogram: 1 0 0 0 0 0 0 0 0 0

Total # of neighbors = 2960
Ave neighs/atom = 61.666667
Neighbor list builds = 0
Dangerous builds = 0
set atom * x 0.0 y 0.0 z 0.0
Setting atom values ...
  48 settings made for x
  48 settings made for y
  48 settings made for z
change_box all     x final 0 5.91399681065986 y final 0 3.23667042185359 z final 0 98.01096332258837      xy final -2.6530783266936782e-17 xz final 0.0 yz final 0.0 units box
Changing box ...
  triclinic box = (0 0 0) to (5.9139968 3.2366704 98.010963) with tilt (-2.6530783e-17 0 0)
  triclinic box = (0 0 0) to (5.9139968 3.2366704 98.010963) with tilt (-2.6530783e-17 0 0)
  triclinic box = (0 0 0) to (5.9139968 3.2366704 98.010963) with tilt (-2.6530783e-17 0 0)
  triclinic box = (0 0 0) to (5.9139968 3.2366704 98.010963) with tilt (-2.6530783e-17 0 0)
  triclinic box = (0 0 0) to (5.9139968 3.2366704 98.010963) with tilt (-2.6530783e-17 0 0)
  triclinic box = (0 0 0) to (5.9139968 3.2366704 98.010963) with tilt (-2.6530783e-17 0 0)
echo none
run 0
WARNING: No fixes with time integration, atoms won't move (src/verlet.cpp:60)
Per MPI rank memory allocation (min/avg/max) = 8.771 | 8.771 | 8.771 Mbytes
    PotEng          Pxx           E_mol          E_coul    
-145.06708      2655.7354      0              0            
Loop time of 4.92e-07 on 1 procs for 0 steps with 48 atoms

203.3% CPU use with 1 MPI tasks x 1 OpenMP threads

MPI task timing breakdown:
Section |  min time  |  avg time  |  max time  |%varavg| %total
---------------------------------------------------------------
Pair    | 0          | 0          | 0          |   0.0 |  0.00
Neigh   | 0          | 0          | 0          |   0.0 |  0.00
Comm    | 0          | 0          | 0          |   0.0 |  0.00
Output  | 0          | 0          | 0          |   0.0 |  0.00
Modify  | 0          | 0          | 0          |   0.0 |  0.00
Other   |            | 4.92e-07   |            |       |100.00

Nlocal:             48 ave          48 max          48 min
Histogram: 1 0 0 0 0 0 0 0 0 0
Nghost:            921 ave         921 max         921 min
Histogram: 1 0 0 0 0 0 0 0 0 0
Neighs:           1480 ave        1480 max        1480 min
Histogram: 1 0 0 0 0 0 0 0 0 0
FullNghs:         2960 ave        2960 max        2960 min
Histogram: 1 0 0 0 0 0 0 0 0 0

Total # of neighbors = 2960
Ave neighs/atom = 61.666667
Neighbor list builds = 0
Dangerous builds = 0
set atom * x 0.0 y 0.0 z 0.0
Setting atom values ...
  48 settings made for x
  48 settings made for y
  48 settings made for z
change_box all     x final 0 5.91399681065986 y final 0 3.23667042185359 z final 0 98.01096332258837      xy final -2.6530783266936782e-17 xz final 0.0 yz final 0.0 units box
Changing box ...
  triclinic box = (0 0 0) to (5.9139968 3.2366704 98.010963) with tilt (-2.6530783e-17 0 0)
  triclinic box = (0 0 0) to (5.9139968 3.2366704 98.010963) with tilt (-2.6530783e-17 0 0)
  triclinic box = (0 0 0) to (5.9139968 3.2366704 98.010963) with tilt (-2.6530783e-17 0 0)
  triclinic box = (0 0 0) to (5.9139968 3.2366704 98.010963) with tilt (-2.6530783e-17 0 0)
  triclinic box = (0 0 0) to (5.9139968 3.2366704 98.010963) with tilt (-2.6530783e-17 0 0)
  triclinic box = (0 0 0) to (5.9139968 3.2366704 98.010963) with tilt (-2.6530783e-17 0 0)
echo none
run 0
WARNING: No fixes with time integration, atoms won't move (src/verlet.cpp:60)
Per MPI rank memory allocation (min/avg/max) = 8.771 | 8.771 | 8.771 Mbytes
    PotEng          Pxx           E_mol          E_coul    
-145.06776      2538.103       0              0            
Loop time of 5.32e-07 on 1 procs for 0 steps with 48 atoms

188.0% CPU use with 1 MPI tasks x 1 OpenMP threads

MPI task timing breakdown:
Section |  min time  |  avg time  |  max time  |%varavg| %total
---------------------------------------------------------------
Pair    | 0          | 0          | 0          |   0.0 |  0.00
Neigh   | 0          | 0          | 0          |   0.0 |  0.00
Comm    | 0          | 0          | 0          |   0.0 |  0.00
Output  | 0          | 0          | 0          |   0.0 |  0.00
Modify  | 0          | 0          | 0          |   0.0 |  0.00
Other   |            | 5.32e-07   |            |       |100.00

Nlocal:             48 ave          48 max          48 min
Histogram: 1 0 0 0 0 0 0 0 0 0
Nghost:            921 ave         921 max         921 min
Histogram: 1 0 0 0 0 0 0 0 0 0
Neighs:           1480 ave        1480 max        1480 min
Histogram: 1 0 0 0 0 0 0 0 0 0
FullNghs:         2960 ave        2960 max        2960 min
Histogram: 1 0 0 0 0 0 0 0 0 0

Total # of neighbors = 2960
Ave neighs/atom = 61.666667
Neighbor list builds = 0
Dangerous builds = 0
set atom * x 0.0 y 0.0 z 0.0
Setting atom values ...
  48 settings made for x
  48 settings made for y
  48 settings made for z
change_box all     x final 0 5.91399681065986 y final 0 3.23667042185359 z final 0 98.01096332258837      xy final -2.6530783266936782e-17 xz final 0.0 yz final 0.0 units box
Changing box ...
  triclinic box = (0 0 0) to (5.9139968 3.2366704 98.010963) with tilt (-2.6530783e-17 0 0)
  triclinic box = (0 0 0) to (5.9139968 3.2366704 98.010963) with tilt (-2.6530783e-17 0 0)
  triclinic box = (0 0 0) to (5.9139968 3.2366704 98.010963) with tilt (-2.6530783e-17 0 0)
  triclinic box = (0 0 0) to (5.9139968 3.2366704 98.010963) with tilt (-2.6530783e-17 0 0)
  triclinic box = (0 0 0) to (5.9139968 3.2366704 98.010963) with tilt (-2.6530783e-17 0 0)
  triclinic box = (0 0 0) to (5.9139968 3.2366704 98.010963) with tilt (-2.6530783e-17 0 0)
echo none
run 0
WARNING: No fixes with time integration, atoms won't move (src/verlet.cpp:60)
Per MPI rank memory allocation (min/avg/max) = 8.771 | 8.771 | 8.771 Mbytes
    PotEng          Pxx           E_mol          E_coul    
-145.06863      2373.8192      0              0            
Loop time of 5.17e-07 on 1 procs for 0 steps with 48 atoms

193.4% CPU use with 1 MPI tasks x 1 OpenMP threads

MPI task timing breakdown:
Section |  min time  |  avg time  |  max time  |%varavg| %total
---------------------------------------------------------------
Pair    | 0          | 0          | 0          |   0.0 |  0.00
Neigh   | 0          | 0          | 0          |   0.0 |  0.00
Comm    | 0          | 0          | 0          |   0.0 |  0.00
Output  | 0          | 0          | 0          |   0.0 |  0.00
Modify  | 0          | 0          | 0          |   0.0 |  0.00
Other   |            | 5.17e-07   |            |       |100.00

Nlocal:             48 ave          48 max          48 min
Histogram: 1 0 0 0 0 0 0 0 0 0
Nghost:            921 ave         921 max         921 min
Histogram: 1 0 0 0 0 0 0 0 0 0
Neighs:           1480 ave        1480 max        1480 min
Histogram: 1 0 0 0 0 0 0 0 0 0
FullNghs:         2960 ave        2960 max        2960 min
Histogram: 1 0 0 0 0 0 0 0 0 0

Total # of neighbors = 2960
Ave neighs/atom = 61.666667
Neighbor list builds = 0
Dangerous builds = 0
set atom * x 0.0 y 0.0 z 0.0
Setting atom values ...
  48 settings made for x
  48 settings made for y
  48 settings made for z
change_box all     x final 0 5.91399681065986 y final 0 3.23667042185359 z final 0 98.01096332258837      xy final -2.6530783266936782e-17 xz final 0.0 yz final 0.0 units box
Changing box ...
  triclinic box = (0 0 0) to (5.9139968 3.2366704 98.010963) with tilt (-2.6530783e-17 0 0)
  triclinic box = (0 0 0) to (5.9139968 3.2366704 98.010963) with tilt (-2.6530783e-17 0 0)
  triclinic box = (0 0 0) to (5.9139968 3.2366704 98.010963) with tilt (-2.6530783e-17 0 0)
  triclinic box = (0 0 0) to (5.9139968 3.2366704 98.010963) with tilt (-2.6530783e-17 0 0)
  triclinic box = (0 0 0) to (5.9139968 3.2366704 98.010963) with tilt (-2.6530783e-17 0 0)
  triclinic box = (0 0 0) to (5.9139968 3.2366704 98.010963) with tilt (-2.6530783e-17 0 0)
echo none
run 0
WARNING: No fixes with time integration, atoms won't move (src/verlet.cpp:60)
Per MPI rank memory allocation (min/avg/max) = 8.771 | 8.771 | 8.771 Mbytes
    PotEng          Pxx           E_mol          E_coul    
-145.0693       2240.3331      0              0            
Loop time of 4.51e-07 on 1 procs for 0 steps with 48 atoms

221.7% CPU use with 1 MPI tasks x 1 OpenMP threads

MPI task timing breakdown:
Section |  min time  |  avg time  |  max time  |%varavg| %total
---------------------------------------------------------------
Pair    | 0          | 0          | 0          |   0.0 |  0.00
Neigh   | 0          | 0          | 0          |   0.0 |  0.00
Comm    | 0          | 0          | 0          |   0.0 |  0.00
Output  | 0          | 0          | 0          |   0.0 |  0.00
Modify  | 0          | 0          | 0          |   0.0 |  0.00
Other   |            | 4.51e-07   |            |       |100.00

Nlocal:             48 ave          48 max          48 min
Histogram: 1 0 0 0 0 0 0 0 0 0
Nghost:            921 ave         921 max         921 min
Histogram: 1 0 0 0 0 0 0 0 0 0
Neighs:           1480 ave        1480 max        1480 min
Histogram: 1 0 0 0 0 0 0 0 0 0
FullNghs:         2960 ave        2960 max        2960 min
Histogram: 1 0 0 0 0 0 0 0 0 0

Total # of neighbors = 2960
Ave neighs/atom = 61.666667
Neighbor list builds = 0
Dangerous builds = 0
set atom * x 0.0 y 0.0 z 0.0
Setting atom values ...
  48 settings made for x
  48 settings made for y
  48 settings made for z
change_box all     x final 0 5.91399681065986 y final 0 3.23667042185359 z final 0 98.01096332258837      xy final -2.6530783266936782e-17 xz final 0.0 yz final 0.0 units box
Changing box ...
  triclinic box = (0 0 0) to (5.9139968 3.2366704 98.010963) with tilt (-2.6530783e-17 0 0)
  triclinic box = (0 0 0) to (5.9139968 3.2366704 98.010963) with tilt (-2.6530783e-17 0 0)
  triclinic box = (0 0 0) to (5.9139968 3.2366704 98.010963) with tilt (-2.6530783e-17 0 0)
  triclinic box = (0 0 0) to (5.9139968 3.2366704 98.010963) with tilt (-2.6530783e-17 0 0)
  triclinic box = (0 0 0) to (5.9139968 3.2366704 98.010963) with tilt (-2.6530783e-17 0 0)
  triclinic box = (0 0 0) to (5.9139968 3.2366704 98.010963) with tilt (-2.6530783e-17 0 0)
echo none
run 0
WARNING: No fixes with time integration, atoms won't move (src/verlet.cpp:60)
Per MPI rank memory allocation (min/avg/max) = 8.771 | 8.771 | 8.771 Mbytes
    PotEng          Pxx           E_mol          E_coul    
-145.0696       2205.3937      0              0            
Loop time of 5.65e-07 on 1 procs for 0 steps with 48 atoms

177.0% CPU use with 1 MPI tasks x 1 OpenMP threads

MPI task timing breakdown:
Section |  min time  |  avg time  |  max time  |%varavg| %total
---------------------------------------------------------------
Pair    | 0          | 0          | 0          |   0.0 |  0.00
Neigh   | 0          | 0          | 0          |   0.0 |  0.00
Comm    | 0          | 0          | 0          |   0.0 |  0.00
Output  | 0          | 0          | 0          |   0.0 |  0.00
Modify  | 0          | 0          | 0          |   0.0 |  0.00
Other   |            | 5.65e-07   |            |       |100.00

Nlocal:             48 ave          48 max          48 min
Histogram: 1 0 0 0 0 0 0 0 0 0
Nghost:            921 ave         921 max         921 min
Histogram: 1 0 0 0 0 0 0 0 0 0
Neighs:           1480 ave        1480 max        1480 min
Histogram: 1 0 0 0 0 0 0 0 0 0
FullNghs:         2960 ave        2960 max        2960 min
Histogram: 1 0 0 0 0 0 0 0 0 0

Total # of neighbors = 2960
Ave neighs/atom = 61.666667
Neighbor list builds = 0
Dangerous builds = 0
set atom * x 0.0 y 0.0 z 0.0
Setting atom values ...
  48 settings made for x
  48 settings made for y
  48 settings made for z
change_box all     x final 0 5.91399681065986 y final 0 3.23667042185359 z final 0 98.01096332258837      xy final -2.6530783266936782e-17 xz final 0.0 yz final 0.0 units box
Changing box ...
  triclinic box = (0 0 0) to (5.9139968 3.2366704 98.010963) with tilt (-2.6530783e-17 0 0)
  triclinic box = (0 0 0) to (5.9139968 3.2366704 98.010963) with tilt (-2.6530783e-17 0 0)
  triclinic box = (0 0 0) to (5.9139968 3.2366704 98.010963) with tilt (-2.6530783e-17 0 0)
  triclinic box = (0 0 0) to (5.9139968 3.2366704 98.010963) with tilt (-2.6530783e-17 0 0)
  triclinic box = (0 0 0) to (5.9139968 3.2366704 98.010963) with tilt (-2.6530783e-17 0 0)
  triclinic box = (0 0 0) to (5.9139968 3.2366704 98.010963) with tilt (-2.6530783e-17 0 0)
echo none
run 0
WARNING: No fixes with time integration, atoms won't move (src/verlet.cpp:60)
Per MPI rank memory allocation (min/avg/max) = 8.771 | 8.771 | 8.771 Mbytes
    PotEng          Pxx           E_mol          E_coul    
-145.06973      2226.1172      0              0            
Loop time of 4.37e-07 on 1 procs for 0 steps with 48 atoms

0.0% CPU use with 1 MPI tasks x 1 OpenMP threads

MPI task timing breakdown:
Section |  min time  |  avg time  |  max time  |%varavg| %total
---------------------------------------------------------------
Pair    | 0          | 0          | 0          |   0.0 |  0.00
Neigh   | 0          | 0          | 0          |   0.0 |  0.00
Comm    | 0          | 0          | 0          |   0.0 |  0.00
Output  | 0          | 0          | 0          |   0.0 |  0.00
Modify  | 0          | 0          | 0          |   0.0 |  0.00
Other   |            | 4.37e-07   |            |       |100.00

Nlocal:             48 ave          48 max          48 min
Histogram: 1 0 0 0 0 0 0 0 0 0
Nghost:            921 ave         921 max         921 min
Histogram: 1 0 0 0 0 0 0 0 0 0
Neighs:           1480 ave        1480 max        1480 min
Histogram: 1 0 0 0 0 0 0 0 0 0
FullNghs:         2960 ave        2960 max        2960 min
Histogram: 1 0 0 0 0 0 0 0 0 0

Total # of neighbors = 2960
Ave neighs/atom = 61.666667
Neighbor list builds = 0
Dangerous builds = 0
set atom * x 0.0 y 0.0 z 0.0
Setting atom values ...
  48 settings made for x
  48 settings made for y
  48 settings made for z
change_box all     x final 0 5.91399681065986 y final 0 3.23667042185359 z final 0 98.01096332258837      xy final -2.6530783266936782e-17 xz final 0.0 yz final 0.0 units box
Changing box ...
  triclinic box = (0 0 0) to (5.9139968 3.2366704 98.010963) with tilt (-2.6530783e-17 0 0)
  triclinic box = (0 0 0) to (5.9139968 3.2366704 98.010963) with tilt (-2.6530783e-17 0 0)
  triclinic box = (0 0 0) to (5.9139968 3.2366704 98.010963) with tilt (-2.6530783e-17 0 0)
  triclinic box = (0 0 0) to (5.9139968 3.2366704 98.010963) with tilt (-2.6530783e-17 0 0)
  triclinic box = (0 0 0) to (5.9139968 3.2366704 98.010963) with tilt (-2.6530783e-17 0 0)
  triclinic box = (0 0 0) to (5.9139968 3.2366704 98.010963) with tilt (-2.6530783e-17 0 0)
echo none
run 0
WARNING: No fixes with time integration, atoms won't move (src/verlet.cpp:60)
Per MPI rank memory allocation (min/avg/max) = 8.771 | 8.771 | 8.771 Mbytes
    PotEng          Pxx           E_mol          E_coul    
-145.06987      2273.1711      0              0            
Loop time of 4.22e-07 on 1 procs for 0 steps with 48 atoms

0.0% CPU use with 1 MPI tasks x 1 OpenMP threads

MPI task timing breakdown:
Section |  min time  |  avg time  |  max time  |%varavg| %total
---------------------------------------------------------------
Pair    | 0          | 0          | 0          |   0.0 |  0.00
Neigh   | 0          | 0          | 0          |   0.0 |  0.00
Comm    | 0          | 0          | 0          |   0.0 |  0.00
Output  | 0          | 0          | 0          |   0.0 |  0.00
Modify  | 0          | 0          | 0          |   0.0 |  0.00
Other   |            | 4.22e-07   |            |       |100.00

Nlocal:             48 ave          48 max          48 min
Histogram: 1 0 0 0 0 0 0 0 0 0
Nghost:            921 ave         921 max         921 min
Histogram: 1 0 0 0 0 0 0 0 0 0
Neighs:           1480 ave        1480 max        1480 min
Histogram: 1 0 0 0 0 0 0 0 0 0
FullNghs:         2960 ave        2960 max        2960 min
Histogram: 1 0 0 0 0 0 0 0 0 0

Total # of neighbors = 2960
Ave neighs/atom = 61.666667
Neighbor list builds = 0
Dangerous builds = 0
set atom * x 0.0 y 0.0 z 0.0
Setting atom values ...
  48 settings made for x
  48 settings made for y
  48 settings made for z
change_box all     x final 0 5.91399681065986 y final 0 3.23667042185359 z final 0 98.01096332258837      xy final -2.6530783266936782e-17 xz final 0.0 yz final 0.0 units box
Changing box ...
  triclinic box = (0 0 0) to (5.9139968 3.2366704 98.010963) with tilt (-2.6530783e-17 0 0)
  triclinic box = (0 0 0) to (5.9139968 3.2366704 98.010963) with tilt (-2.6530783e-17 0 0)
  triclinic box = (0 0 0) to (5.9139968 3.2366704 98.010963) with tilt (-2.6530783e-17 0 0)
  triclinic box = (0 0 0) to (5.9139968 3.2366704 98.010963) with tilt (-2.6530783e-17 0 0)
  triclinic box = (0 0 0) to (5.9139968 3.2366704 98.010963) with tilt (-2.6530783e-17 0 0)
  triclinic box = (0 0 0) to (5.9139968 3.2366704 98.010963) with tilt (-2.6530783e-17 0 0)
echo none
run 0
WARNING: No fixes with time integration, atoms won't move (src/verlet.cpp:60)
Per MPI rank memory allocation (min/avg/max) = 8.771 | 8.771 | 8.771 Mbytes
    PotEng          Pxx           E_mol          E_coul    
-145.07014      2373.6875      0              0            
Loop time of 5.13e-07 on 1 procs for 0 steps with 48 atoms

194.9% CPU use with 1 MPI tasks x 1 OpenMP threads

MPI task timing breakdown:
Section |  min time  |  avg time  |  max time  |%varavg| %total
---------------------------------------------------------------
Pair    | 0          | 0          | 0          |   0.0 |  0.00
Neigh   | 0          | 0          | 0          |   0.0 |  0.00
Comm    | 0          | 0          | 0          |   0.0 |  0.00
Output  | 0          | 0          | 0          |   0.0 |  0.00
Modify  | 0          | 0          | 0          |   0.0 |  0.00
Other   |            | 5.13e-07   |            |       |100.00

Nlocal:             48 ave          48 max          48 min
Histogram: 1 0 0 0 0 0 0 0 0 0
Nghost:            921 ave         921 max         921 min
Histogram: 1 0 0 0 0 0 0 0 0 0
Neighs:           1480 ave        1480 max        1480 min
Histogram: 1 0 0 0 0 0 0 0 0 0
FullNghs:         2960 ave        2960 max        2960 min
Histogram: 1 0 0 0 0 0 0 0 0 0

Total # of neighbors = 2960
Ave neighs/atom = 61.666667
Neighbor list builds = 0
Dangerous builds = 0
set atom * x 0.0 y 0.0 z 0.0
Setting atom values ...
  48 settings made for x
  48 settings made for y
  48 settings made for z
change_box all     x final 0 5.91399681065986 y final 0 3.23667042185359 z final 0 98.01096332258837      xy final -2.6530783266936782e-17 xz final 0.0 yz final 0.0 units box
Changing box ...
  triclinic box = (0 0 0) to (5.9139968 3.2366704 98.010963) with tilt (-2.6530783e-17 0 0)
  triclinic box = (0 0 0) to (5.9139968 3.2366704 98.010963) with tilt (-2.6530783e-17 0 0)
  triclinic box = (0 0 0) to (5.9139968 3.2366704 98.010963) with tilt (-2.6530783e-17 0 0)
  triclinic box = (0 0 0) to (5.9139968 3.2366704 98.010963) with tilt (-2.6530783e-17 0 0)
  triclinic box = (0 0 0) to (5.9139968 3.2366704 98.010963) with tilt (-2.6530783e-17 0 0)
  triclinic box = (0 0 0) to (5.9139968 3.2366704 98.010963) with tilt (-2.6530783e-17 0 0)
echo none
run 0
WARNING: No fixes with time integration, atoms won't move (src/verlet.cpp:60)
Per MPI rank memory allocation (min/avg/max) = 8.771 | 8.771 | 8.771 Mbytes
    PotEng          Pxx           E_mol          E_coul    
-145.07053      2524.8879      0              0            
Loop time of 5.42e-07 on 1 procs for 0 steps with 48 atoms

184.5% CPU use with 1 MPI tasks x 1 OpenMP threads

MPI task timing breakdown:
Section |  min time  |  avg time  |  max time  |%varavg| %total
---------------------------------------------------------------
Pair    | 0          | 0          | 0          |   0.0 |  0.00
Neigh   | 0          | 0          | 0          |   0.0 |  0.00
Comm    | 0          | 0          | 0          |   0.0 |  0.00
Output  | 0          | 0          | 0          |   0.0 |  0.00
Modify  | 0          | 0          | 0          |   0.0 |  0.00
Other   |            | 5.42e-07   |            |       |100.00

Nlocal:             48 ave          48 max          48 min
Histogram: 1 0 0 0 0 0 0 0 0 0
Nghost:            921 ave         921 max         921 min
Histogram: 1 0 0 0 0 0 0 0 0 0
Neighs:           1480 ave        1480 max        1480 min
Histogram: 1 0 0 0 0 0 0 0 0 0
FullNghs:         2960 ave        2960 max        2960 min
Histogram: 1 0 0 0 0 0 0 0 0 0

Total # of neighbors = 2960
Ave neighs/atom = 61.666667
Neighbor list builds = 0
Dangerous builds = 0
set atom * x 0.0 y 0.0 z 0.0
Setting atom values ...
  48 settings made for x
  48 settings made for y
  48 settings made for z
change_box all     x final 0 5.91399681065986 y final 0 3.23667042185359 z final 0 98.01096332258837      xy final -2.6530783266936782e-17 xz final 0.0 yz final 0.0 units box
Changing box ...
  triclinic box = (0 0 0) to (5.9139968 3.2366704 98.010963) with tilt (-2.6530783e-17 0 0)
  triclinic box = (0 0 0) to (5.9139968 3.2366704 98.010963) with tilt (-2.6530783e-17 0 0)
  triclinic box = (0 0 0) to (5.9139968 3.2366704 98.010963) with tilt (-2.6530783e-17 0 0)
  triclinic box = (0 0 0) to (5.9139968 3.2366704 98.010963) with tilt (-2.6530783e-17 0 0)
  triclinic box = (0 0 0) to (5.9139968 3.2366704 98.010963) with tilt (-2.6530783e-17 0 0)
  triclinic box = (0 0 0) to (5.9139968 3.2366704 98.010963) with tilt (-2.6530783e-17 0 0)
echo none
run 0
WARNING: No fixes with time integration, atoms won't move (src/verlet.cpp:60)
Per MPI rank memory allocation (min/avg/max) = 8.771 | 8.771 | 8.771 Mbytes
    PotEng          Pxx           E_mol          E_coul    
-145.07084      2654.4518      0              0            
Loop time of 4.98e-07 on 1 procs for 0 steps with 48 atoms

200.8% CPU use with 1 MPI tasks x 1 OpenMP threads

MPI task timing breakdown:
Section |  min time  |  avg time  |  max time  |%varavg| %total
---------------------------------------------------------------
Pair    | 0          | 0          | 0          |   0.0 |  0.00
Neigh   | 0          | 0          | 0          |   0.0 |  0.00
Comm    | 0          | 0          | 0          |   0.0 |  0.00
Output  | 0          | 0          | 0          |   0.0 |  0.00
Modify  | 0          | 0          | 0          |   0.0 |  0.00
Other   |            | 4.98e-07   |            |       |100.00

Nlocal:             48 ave          48 max          48 min
Histogram: 1 0 0 0 0 0 0 0 0 0
Nghost:            921 ave         921 max         921 min
Histogram: 1 0 0 0 0 0 0 0 0 0
Neighs:           1480 ave        1480 max        1480 min
Histogram: 1 0 0 0 0 0 0 0 0 0
FullNghs:         2960 ave        2960 max        2960 min
Histogram: 1 0 0 0 0 0 0 0 0 0

Total # of neighbors = 2960
Ave neighs/atom = 61.666667
Neighbor list builds = 0
Dangerous builds = 0
set atom * x 0.0 y 0.0 z 0.0
Setting atom values ...
  48 settings made for x
  48 settings made for y
  48 settings made for z
change_box all     x final 0 5.91399681065986 y final 0 3.23667042185359 z final 0 98.01096332258837      xy final -2.6530783266936782e-17 xz final 0.0 yz final 0.0 units box
Changing box ...
  triclinic box = (0 0 0) to (5.9139968 3.2366704 98.010963) with tilt (-2.6530783e-17 0 0)
  triclinic box = (0 0 0) to (5.9139968 3.2366704 98.010963) with tilt (-2.6530783e-17 0 0)
  triclinic box = (0 0 0) to (5.9139968 3.2366704 98.010963) with tilt (-2.6530783e-17 0 0)
  triclinic box = (0 0 0) to (5.9139968 3.2366704 98.010963) with tilt (-2.6530783e-17 0 0)
  triclinic box = (0 0 0) to (5.9139968 3.2366704 98.010963) with tilt (-2.6530783e-17 0 0)
  triclinic box = (0 0 0) to (5.9139968 3.2366704 98.010963) with tilt (-2.6530783e-17 0 0)
echo none
run 0
WARNING: No fixes with time integration, atoms won't move (src/verlet.cpp:60)
Per MPI rank memory allocation (min/avg/max) = 8.771 | 8.771 | 8.771 Mbytes
    PotEng          Pxx           E_mol          E_coul    
-145.07096      2685.0271      0              0            
Loop time of 4.27e-07 on 1 procs for 0 steps with 48 atoms

234.2% CPU use with 1 MPI tasks x 1 OpenMP threads

MPI task timing breakdown:
Section |  min time  |  avg time  |  max time  |%varavg| %total
---------------------------------------------------------------
Pair    | 0          | 0          | 0          |   0.0 |  0.00
Neigh   | 0          | 0          | 0          |   0.0 |  0.00
Comm    | 0          | 0          | 0          |   0.0 |  0.00
Output  | 0          | 0          | 0          |   0.0 |  0.00
Modify  | 0          | 0          | 0          |   0.0 |  0.00
Other   |            | 4.27e-07   |            |       |100.00

Nlocal:             48 ave          48 max          48 min
Histogram: 1 0 0 0 0 0 0 0 0 0
Nghost:            921 ave         921 max         921 min
Histogram: 1 0 0 0 0 0 0 0 0 0
Neighs:           1480 ave        1480 max        1480 min
Histogram: 1 0 0 0 0 0 0 0 0 0
FullNghs:         2960 ave        2960 max        2960 min
Histogram: 1 0 0 0 0 0 0 0 0 0

Total # of neighbors = 2960
Ave neighs/atom = 61.666667
Neighbor list builds = 0
Dangerous builds = 0
Total wall time: 0:00:00
