LAMMPS (29 Aug 2024)
OMP_NUM_THREADS environment is not set. Defaulting to 1 thread. (src/comm.cpp:98)
  using 1 OpenMP thread(s) per MPI task
units metal
atom_style atomic
atom_modify map array sort 0 0
boundary p p p
box tilt large

The 'box' command has been removed and will be ignored

region cell prism    0 8.3636544974664 0 8.968096340511282 0 46.60186917768427     -8.3636544974664 0.0 0.0     units box
create_box 1 cell
Created triclinic box = (0 0 0) to (8.3636545 8.9680963 46.601869) with tilt (-8.3636545 0 0)
WARNING: Triclinic box skew is large. LAMMPS will run inefficiently. (src/domain.cpp:221)
  1 by 1 by 1 MPI processor grid
echo none
Created 48 atoms
  using lattice units in triclinic box = (0 0 0) to (8.3636545 8.9680963 46.601869) with tilt (-8.3636545 0 0)
  create_atoms CPU = 0.000 seconds
Setting atom values ...
  1 settings made for type
Setting atom values ...
  1 settings made for type
Setting atom values ...
  1 settings made for type
Setting atom values ...
  1 settings made for type
Setting atom values ...
  1 settings made for type
Setting atom values ...
  1 settings made for type
Setting atom values ...
  1 settings made for type
Setting atom values ...
  1 settings made for type
Setting atom values ...
  1 settings made for type
Setting atom values ...
  1 settings made for type
Setting atom values ...
  1 settings made for type
Setting atom values ...
  1 settings made for type
Setting atom values ...
  1 settings made for type
Setting atom values ...
  1 settings made for type
Setting atom values ...
  1 settings made for type
Setting atom values ...
  1 settings made for type
Setting atom values ...
  1 settings made for type
Setting atom values ...
  1 settings made for type
Setting atom values ...
  1 settings made for type
Setting atom values ...
  1 settings made for type
Setting atom values ...
  1 settings made for type
Setting atom values ...
  1 settings made for type
Setting atom values ...
  1 settings made for type
Setting atom values ...
  1 settings made for type
Setting atom values ...
  1 settings made for type
Setting atom values ...
  1 settings made for type
Setting atom values ...
  1 settings made for type
Setting atom values ...
  1 settings made for type
Setting atom values ...
  1 settings made for type
Setting atom values ...
  1 settings made for type
Setting atom values ...
  1 settings made for type
Setting atom values ...
  1 settings made for type
Setting atom values ...
  1 settings made for type
Setting atom values ...
  1 settings made for type
Setting atom values ...
  1 settings made for type
Setting atom values ...
  1 settings made for type
Setting atom values ...
  1 settings made for type
Setting atom values ...
  1 settings made for type
Setting atom values ...
  1 settings made for type
Setting atom values ...
  1 settings made for type
Setting atom values ...
  1 settings made for type
Setting atom values ...
  1 settings made for type
Setting atom values ...
  1 settings made for type
Setting atom values ...
  1 settings made for type
Setting atom values ...
  1 settings made for type
Setting atom values ...
  1 settings made for type
Setting atom values ...
  1 settings made for type
Setting atom values ...
  1 settings made for type
pair_style meam
pair_coeff * * <HOME>/projects/beta-sn-elasticity/surface_gb/meam_potentials/library.Sn.Etesami2018.meam Sn <HOME>/projects/beta-sn-elasticity/surface_gb/meam_potentials/Sn.Etesami2018.meam Sn
compute pe_peratom all pe/atom
mass 1 118.709999969462515423401782754809
variable pxx equal pxx
variable pyy equal pyy
variable pzz equal pzz
variable pxy equal pxy
variable pxz equal pxz
variable pyz equal pyz
thermo_style custom pe pxx emol ecoul
variable fx atom fx
variable fy atom fy
variable fz atom fz
variable pe equal pe
neigh_modify delay 0 every 1 check yes
echo none
run 0
WARNING: No fixes with time integration, atoms won't move (src/verlet.cpp:60)
Neighbor list info ...
  update: every = 1 steps, delay = 0 steps, check = yes
  max neighbors/atom: 2000, page size: 100000
  master list distance cutoff = 7.5
  ghost atom cutoff = 7.5
  binsize = 3.75, bins = 5 3 13
  2 neighbor lists, perpetual/occasional/extra = 2 0 0
  (1) pair meam, perpetual
      attributes: full, newton on
      pair build: full/bin/atomonly
      stencil: full/bin/3d
      bin: standard
  (2) pair meam, perpetual, half/full from (1)
      attributes: half, newton on
      pair build: halffull/newton/tri
      stencil: none
      bin: none
Per MPI rank memory allocation (min/avg/max) = 8.599 | 8.599 | 8.599 Mbytes
    PotEng          Pxx           E_mol          E_coul    
-131.05313      16555.682      0              0            
Loop time of 8.91e-07 on 1 procs for 0 steps with 48 atoms

224.5% CPU use with 1 MPI tasks x 1 OpenMP threads

MPI task timing breakdown:
Section |  min time  |  avg time  |  max time  |%varavg| %total
---------------------------------------------------------------
Pair    | 0          | 0          | 0          |   0.0 |  0.00
Neigh   | 0          | 0          | 0          |   0.0 |  0.00
Comm    | 0          | 0          | 0          |   0.0 |  0.00
Output  | 0          | 0          | 0          |   0.0 |  0.00
Modify  | 0          | 0          | 0          |   0.0 |  0.00
Other   |            | 8.91e-07   |            |       |100.00

Nlocal:             48 ave          48 max          48 min
Histogram: 1 0 0 0 0 0 0 0 0 0
Nghost:            397 ave         397 max         397 min
Histogram: 1 0 0 0 0 0 0 0 0 0
Neighs:           1304 ave        1304 max        1304 min
Histogram: 1 0 0 0 0 0 0 0 0 0
FullNghs:         2608 ave        2608 max        2608 min
Histogram: 1 0 0 0 0 0 0 0 0 0

Total # of neighbors = 2608
Ave neighs/atom = 54.333333
Neighbor list builds = 0
Dangerous builds = 0
set atom * x 0.0 y 0.0 z 0.0
Setting atom values ...
  48 settings made for x
  48 settings made for y
  48 settings made for z
change_box all     x final 0 8.3636544974664 y final 0 8.968096340511282 z final 0 46.60186917768427      xy final -8.3636544974664 xz final 0.0 yz final 0.0 units box
Changing box ...
WARNING: Triclinic box skew is large. LAMMPS will run inefficiently. (src/domain.cpp:221)
  triclinic box = (0 0 0) to (8.3636545 8.9680963 46.601869) with tilt (-8.3636545 0 0)
WARNING: Triclinic box skew is large. LAMMPS will run inefficiently. (src/domain.cpp:221)
  triclinic box = (0 0 0) to (8.3636545 8.9680963 46.601869) with tilt (-8.3636545 0 0)
WARNING: Triclinic box skew is large. LAMMPS will run inefficiently. (src/domain.cpp:221)
  triclinic box = (0 0 0) to (8.3636545 8.9680963 46.601869) with tilt (-8.3636545 0 0)
WARNING: Triclinic box skew is large. LAMMPS will run inefficiently. (src/domain.cpp:221)
  triclinic box = (0 0 0) to (8.3636545 8.9680963 46.601869) with tilt (-8.3636545 0 0)
WARNING: Triclinic box skew is large. LAMMPS will run inefficiently. (src/domain.cpp:221)
  triclinic box = (0 0 0) to (8.3636545 8.9680963 46.601869) with tilt (-8.3636545 0 0)
WARNING: Triclinic box skew is large. LAMMPS will run inefficiently. (src/domain.cpp:221)
  triclinic box = (0 0 0) to (8.3636545 8.9680963 46.601869) with tilt (-8.3636545 0 0)
echo none
run 0
WARNING: No fixes with time integration, atoms won't move (src/verlet.cpp:60)
Per MPI rank memory allocation (min/avg/max) = 8.724 | 8.724 | 8.724 Mbytes
    PotEng          Pxx           E_mol          E_coul    
-132.01734      15221.735      0              0            
Loop time of 8.86e-07 on 1 procs for 0 steps with 48 atoms

112.9% CPU use with 1 MPI tasks x 1 OpenMP threads

MPI task timing breakdown:
Section |  min time  |  avg time  |  max time  |%varavg| %total
---------------------------------------------------------------
Pair    | 0          | 0          | 0          |   0.0 |  0.00
Neigh   | 0          | 0          | 0          |   0.0 |  0.00
Comm    | 0          | 0          | 0          |   0.0 |  0.00
Output  | 0          | 0          | 0          |   0.0 |  0.00
Modify  | 0          | 0          | 0          |   0.0 |  0.00
Other   |            | 8.86e-07   |            |       |100.00

Nlocal:             48 ave          48 max          48 min
Histogram: 1 0 0 0 0 0 0 0 0 0
Nghost:            397 ave         397 max         397 min
Histogram: 1 0 0 0 0 0 0 0 0 0
Neighs:           1304 ave        1304 max        1304 min
Histogram: 1 0 0 0 0 0 0 0 0 0
FullNghs:         2608 ave        2608 max        2608 min
Histogram: 1 0 0 0 0 0 0 0 0 0

Total # of neighbors = 2608
Ave neighs/atom = 54.333333
Neighbor list builds = 0
Dangerous builds = 0
set atom * x 0.0 y 0.0 z 0.0
Setting atom values ...
  48 settings made for x
  48 settings made for y
  48 settings made for z
change_box all     x final 0 8.3636544974664 y final 0 8.968096340511282 z final 0 46.60186917768427      xy final -8.3636544974664 xz final 0.0 yz final 0.0 units box
Changing box ...
WARNING: Triclinic box skew is large. LAMMPS will run inefficiently. (src/domain.cpp:221)
  triclinic box = (0 0 0) to (8.3636545 8.9680963 46.601869) with tilt (-8.3636545 0 0)
WARNING: Triclinic box skew is large. LAMMPS will run inefficiently. (src/domain.cpp:221)
  triclinic box = (0 0 0) to (8.3636545 8.9680963 46.601869) with tilt (-8.3636545 0 0)
WARNING: Triclinic box skew is large. LAMMPS will run inefficiently. (src/domain.cpp:221)
  triclinic box = (0 0 0) to (8.3636545 8.9680963 46.601869) with tilt (-8.3636545 0 0)
WARNING: Triclinic box skew is large. LAMMPS will run inefficiently. (src/domain.cpp:221)
  triclinic box = (0 0 0) to (8.3636545 8.9680963 46.601869) with tilt (-8.3636545 0 0)
WARNING: Triclinic box skew is large. LAMMPS will run inefficiently. (src/domain.cpp:221)
  triclinic box = (0 0 0) to (8.3636545 8.9680963 46.601869) with tilt (-8.3636545 0 0)
WARNING: Triclinic box skew is large. LAMMPS will run inefficiently. (src/domain.cpp:221)
  triclinic box = (0 0 0) to (8.3636545 8.9680963 46.601869) with tilt (-8.3636545 0 0)
echo none
run 0
WARNING: No fixes with time integration, atoms won't move (src/verlet.cpp:60)
Per MPI rank memory allocation (min/avg/max) = 8.724 | 8.724 | 8.724 Mbytes
    PotEng          Pxx           E_mol          E_coul    
-133.2764       12761.392      0              0            
Loop time of 8.44e-07 on 1 procs for 0 steps with 48 atoms

237.0% CPU use with 1 MPI tasks x 1 OpenMP threads

MPI task timing breakdown:
Section |  min time  |  avg time  |  max time  |%varavg| %total
---------------------------------------------------------------
Pair    | 0          | 0          | 0          |   0.0 |  0.00
Neigh   | 0          | 0          | 0          |   0.0 |  0.00
Comm    | 0          | 0          | 0          |   0.0 |  0.00
Output  | 0          | 0          | 0          |   0.0 |  0.00
Modify  | 0          | 0          | 0          |   0.0 |  0.00
Other   |            | 8.44e-07   |            |       |100.00

Nlocal:             48 ave          48 max          48 min
Histogram: 1 0 0 0 0 0 0 0 0 0
Nghost:            394 ave         394 max         394 min
Histogram: 1 0 0 0 0 0 0 0 0 0
Neighs:           1304 ave        1304 max        1304 min
Histogram: 1 0 0 0 0 0 0 0 0 0
FullNghs:         2608 ave        2608 max        2608 min
Histogram: 1 0 0 0 0 0 0 0 0 0

Total # of neighbors = 2608
Ave neighs/atom = 54.333333
Neighbor list builds = 0
Dangerous builds = 0
set atom * x 0.0 y 0.0 z 0.0
Setting atom values ...
  48 settings made for x
  48 settings made for y
  48 settings made for z
change_box all     x final 0 8.3636544974664 y final 0 8.968096340511282 z final 0 46.60186917768427      xy final -8.3636544974664 xz final 0.0 yz final 0.0 units box
Changing box ...
WARNING: Triclinic box skew is large. LAMMPS will run inefficiently. (src/domain.cpp:221)
  triclinic box = (0 0 0) to (8.3636545 8.9680963 46.601869) with tilt (-8.3636545 0 0)
WARNING: Triclinic box skew is large. LAMMPS will run inefficiently. (src/domain.cpp:221)
  triclinic box = (0 0 0) to (8.3636545 8.9680963 46.601869) with tilt (-8.3636545 0 0)
WARNING: Triclinic box skew is large. LAMMPS will run inefficiently. (src/domain.cpp:221)
  triclinic box = (0 0 0) to (8.3636545 8.9680963 46.601869) with tilt (-8.3636545 0 0)
WARNING: Triclinic box skew is large. LAMMPS will run inefficiently. (src/domain.cpp:221)
  triclinic box = (0 0 0) to (8.3636545 8.9680963 46.601869) with tilt (-8.3636545 0 0)
WARNING: Triclinic box skew is large. LAMMPS will run inefficiently. (src/domain.cpp:221)
  triclinic box = (0 0 0) to (8.3636545 8.9680963 46.601869) with tilt (-8.3636545 0 0)
WARNING: Triclinic box skew is large. LAMMPS will run inefficiently. (src/domain.cpp:221)
  triclinic box = (0 0 0) to (8.3636545 8.9680963 46.601869) with tilt (-8.3636545 0 0)
echo none
run 0
WARNING: No fixes with time integration, atoms won't move (src/verlet.cpp:60)
Per MPI rank memory allocation (min/avg/max) = 8.724 | 8.724 | 8.724 Mbytes
    PotEng          Pxx           E_mol          E_coul    
-133.65608      11481.781      0              0            
Loop time of 7.24e-07 on 1 procs for 0 steps with 48 atoms

276.2% CPU use with 1 MPI tasks x 1 OpenMP threads

MPI task timing breakdown:
Section |  min time  |  avg time  |  max time  |%varavg| %total
---------------------------------------------------------------
Pair    | 0          | 0          | 0          |   0.0 |  0.00
Neigh   | 0          | 0          | 0          |   0.0 |  0.00
Comm    | 0          | 0          | 0          |   0.0 |  0.00
Output  | 0          | 0          | 0          |   0.0 |  0.00
Modify  | 0          | 0          | 0          |   0.0 |  0.00
Other   |            | 7.24e-07   |            |       |100.00

Nlocal:             48 ave          48 max          48 min
Histogram: 1 0 0 0 0 0 0 0 0 0
Nghost:            394 ave         394 max         394 min
Histogram: 1 0 0 0 0 0 0 0 0 0
Neighs:           1304 ave        1304 max        1304 min
Histogram: 1 0 0 0 0 0 0 0 0 0
FullNghs:         2608 ave        2608 max        2608 min
Histogram: 1 0 0 0 0 0 0 0 0 0

Total # of neighbors = 2608
Ave neighs/atom = 54.333333
Neighbor list builds = 0
Dangerous builds = 0
set atom * x 0.0 y 0.0 z 0.0
Setting atom values ...
  48 settings made for x
  48 settings made for y
  48 settings made for z
change_box all     x final 0 8.3636544974664 y final 0 8.968096340511282 z final 0 46.60186917768427      xy final -8.3636544974664 xz final 0.0 yz final 0.0 units box
Changing box ...
WARNING: Triclinic box skew is large. LAMMPS will run inefficiently. (src/domain.cpp:221)
  triclinic box = (0 0 0) to (8.3636545 8.9680963 46.601869) with tilt (-8.3636545 0 0)
WARNING: Triclinic box skew is large. LAMMPS will run inefficiently. (src/domain.cpp:221)
  triclinic box = (0 0 0) to (8.3636545 8.9680963 46.601869) with tilt (-8.3636545 0 0)
WARNING: Triclinic box skew is large. LAMMPS will run inefficiently. (src/domain.cpp:221)
  triclinic box = (0 0 0) to (8.3636545 8.9680963 46.601869) with tilt (-8.3636545 0 0)
WARNING: Triclinic box skew is large. LAMMPS will run inefficiently. (src/domain.cpp:221)
  triclinic box = (0 0 0) to (8.3636545 8.9680963 46.601869) with tilt (-8.3636545 0 0)
WARNING: Triclinic box skew is large. LAMMPS will run inefficiently. (src/domain.cpp:221)
  triclinic box = (0 0 0) to (8.3636545 8.9680963 46.601869) with tilt (-8.3636545 0 0)
WARNING: Triclinic box skew is large. LAMMPS will run inefficiently. (src/domain.cpp:221)
  triclinic box = (0 0 0) to (8.3636545 8.9680963 46.601869) with tilt (-8.3636545 0 0)
echo none
run 0
WARNING: No fixes with time integration, atoms won't move (src/verlet.cpp:60)
Per MPI rank memory allocation (min/avg/max) = 8.724 | 8.724 | 8.724 Mbytes
    PotEng          Pxx           E_mol          E_coul    
-134.16718      8965.8745      0              0            
Loop time of 8.74e-07 on 1 procs for 0 steps with 48 atoms

228.8% CPU use with 1 MPI tasks x 1 OpenMP threads

MPI task timing breakdown:
Section |  min time  |  avg time  |  max time  |%varavg| %total
---------------------------------------------------------------
Pair    | 0          | 0          | 0          |   0.0 |  0.00
Neigh   | 0          | 0          | 0          |   0.0 |  0.00
Comm    | 0          | 0          | 0          |   0.0 |  0.00
Output  | 0          | 0          | 0          |   0.0 |  0.00
Modify  | 0          | 0          | 0          |   0.0 |  0.00
Other   |            | 8.74e-07   |            |       |100.00

Nlocal:             48 ave          48 max          48 min
Histogram: 1 0 0 0 0 0 0 0 0 0
Nghost:            394 ave         394 max         394 min
Histogram: 1 0 0 0 0 0 0 0 0 0
Neighs:           1304 ave        1304 max        1304 min
Histogram: 1 0 0 0 0 0 0 0 0 0
FullNghs:         2608 ave        2608 max        2608 min
Histogram: 1 0 0 0 0 0 0 0 0 0

Total # of neighbors = 2608
Ave neighs/atom = 54.333333
Neighbor list builds = 0
Dangerous builds = 0
set atom * x 0.0 y 0.0 z 0.0
Setting atom values ...
  48 settings made for x
  48 settings made for y
  48 settings made for z
change_box all     x final 0 8.3636544974664 y final 0 8.968096340511282 z final 0 46.60186917768427      xy final -8.3636544974664 xz final 0.0 yz final 0.0 units box
Changing box ...
WARNING: Triclinic box skew is large. LAMMPS will run inefficiently. (src/domain.cpp:221)
  triclinic box = (0 0 0) to (8.3636545 8.9680963 46.601869) with tilt (-8.3636545 0 0)
WARNING: Triclinic box skew is large. LAMMPS will run inefficiently. (src/domain.cpp:221)
  triclinic box = (0 0 0) to (8.3636545 8.9680963 46.601869) with tilt (-8.3636545 0 0)
WARNING: Triclinic box skew is large. LAMMPS will run inefficiently. (src/domain.cpp:221)
  triclinic box = (0 0 0) to (8.3636545 8.9680963 46.601869) with tilt (-8.3636545 0 0)
WARNING: Triclinic box skew is large. LAMMPS will run inefficiently. (src/domain.cpp:221)
  triclinic box = (0 0 0) to (8.3636545 8.9680963 46.601869) with tilt (-8.3636545 0 0)
WARNING: Triclinic box skew is large. LAMMPS will run inefficiently. (src/domain.cpp:221)
  triclinic box = (0 0 0) to (8.3636545 8.9680963 46.601869) with tilt (-8.3636545 0 0)
WARNING: Triclinic box skew is large. LAMMPS will run inefficiently. (src/domain.cpp:221)
  triclinic box = (0 0 0) to (8.3636545 8.9680963 46.601869) with tilt (-8.3636545 0 0)
echo none
run 0
WARNING: No fixes with time integration, atoms won't move (src/verlet.cpp:60)
Per MPI rank memory allocation (min/avg/max) = 8.724 | 8.724 | 8.724 Mbytes
    PotEng          Pxx           E_mol          E_coul    
-134.39163      7286.0706      0              0            
Loop time of 1.419e-06 on 1 procs for 0 steps with 48 atoms

211.4% CPU use with 1 MPI tasks x 1 OpenMP threads

MPI task timing breakdown:
Section |  min time  |  avg time  |  max time  |%varavg| %total
---------------------------------------------------------------
Pair    | 0          | 0          | 0          |   0.0 |  0.00
Neigh   | 0          | 0          | 0          |   0.0 |  0.00
Comm    | 0          | 0          | 0          |   0.0 |  0.00
Output  | 0          | 0          | 0          |   0.0 |  0.00
Modify  | 0          | 0          | 0          |   0.0 |  0.00
Other   |            | 1.419e-06  |            |       |100.00

Nlocal:             48 ave          48 max          48 min
Histogram: 1 0 0 0 0 0 0 0 0 0
Nghost:            394 ave         394 max         394 min
Histogram: 1 0 0 0 0 0 0 0 0 0
Neighs:           1304 ave        1304 max        1304 min
Histogram: 1 0 0 0 0 0 0 0 0 0
FullNghs:         2608 ave        2608 max        2608 min
Histogram: 1 0 0 0 0 0 0 0 0 0

Total # of neighbors = 2608
Ave neighs/atom = 54.333333
Neighbor list builds = 0
Dangerous builds = 0
set atom * x 0.0 y 0.0 z 0.0
Setting atom values ...
  48 settings made for x
  48 settings made for y
  48 settings made for z
change_box all     x final 0 8.3636544974664 y final 0 8.968096340511282 z final 0 46.60186917768427      xy final -8.3636544974664 xz final 0.0 yz final 0.0 units box
Changing box ...
WARNING: Triclinic box skew is large. LAMMPS will run inefficiently. (src/domain.cpp:221)
  triclinic box = (0 0 0) to (8.3636545 8.9680963 46.601869) with tilt (-8.3636545 0 0)
WARNING: Triclinic box skew is large. LAMMPS will run inefficiently. (src/domain.cpp:221)
  triclinic box = (0 0 0) to (8.3636545 8.9680963 46.601869) with tilt (-8.3636545 0 0)
WARNING: Triclinic box skew is large. LAMMPS will run inefficiently. (src/domain.cpp:221)
  triclinic box = (0 0 0) to (8.3636545 8.9680963 46.601869) with tilt (-8.3636545 0 0)
WARNING: Triclinic box skew is large. LAMMPS will run inefficiently. (src/domain.cpp:221)
  triclinic box = (0 0 0) to (8.3636545 8.9680963 46.601869) with tilt (-8.3636545 0 0)
WARNING: Triclinic box skew is large. LAMMPS will run inefficiently. (src/domain.cpp:221)
  triclinic box = (0 0 0) to (8.3636545 8.9680963 46.601869) with tilt (-8.3636545 0 0)
WARNING: Triclinic box skew is large. LAMMPS will run inefficiently. (src/domain.cpp:221)
  triclinic box = (0 0 0) to (8.3636545 8.9680963 46.601869) with tilt (-8.3636545 0 0)
echo none
run 0
WARNING: No fixes with time integration, atoms won't move (src/verlet.cpp:60)
Per MPI rank memory allocation (min/avg/max) = 8.724 | 8.724 | 8.724 Mbytes
    PotEng          Pxx           E_mol          E_coul    
-134.51412      6266.1867      0              0            
Loop time of 1.393e-06 on 1 procs for 0 steps with 48 atoms

143.6% CPU use with 1 MPI tasks x 1 OpenMP threads

MPI task timing breakdown:
Section |  min time  |  avg time  |  max time  |%varavg| %total
---------------------------------------------------------------
Pair    | 0          | 0          | 0          |   0.0 |  0.00
Neigh   | 0          | 0          | 0          |   0.0 |  0.00
Comm    | 0          | 0          | 0          |   0.0 |  0.00
Output  | 0          | 0          | 0          |   0.0 |  0.00
Modify  | 0          | 0          | 0          |   0.0 |  0.00
Other   |            | 1.393e-06  |            |       |100.00

Nlocal:             48 ave          48 max          48 min
Histogram: 1 0 0 0 0 0 0 0 0 0
Nghost:            394 ave         394 max         394 min
Histogram: 1 0 0 0 0 0 0 0 0 0
Neighs:           1304 ave        1304 max        1304 min
Histogram: 1 0 0 0 0 0 0 0 0 0
FullNghs:         2608 ave        2608 max        2608 min
Histogram: 1 0 0 0 0 0 0 0 0 0

Total # of neighbors = 2608
Ave neighs/atom = 54.333333
Neighbor list builds = 0
Dangerous builds = 0
set atom * x 0.0 y 0.0 z 0.0
Setting atom values ...
  48 settings made for x
  48 settings made for y
  48 settings made for z
change_box all     x final 0 8.3636544974664 y final 0 8.968096340511282 z final 0 46.60186917768427      xy final -8.3636544974664 xz final 0.0 yz final 0.0 units box
Changing box ...
WARNING: Triclinic box skew is large. LAMMPS will run inefficiently. (src/domain.cpp:221)
  triclinic box = (0 0 0) to (8.3636545 8.9680963 46.601869) with tilt (-8.3636545 0 0)
WARNING: Triclinic box skew is large. LAMMPS will run inefficiently. (src/domain.cpp:221)
  triclinic box = (0 0 0) to (8.3636545 8.9680963 46.601869) with tilt (-8.3636545 0 0)
WARNING: Triclinic box skew is large. LAMMPS will run inefficiently. (src/domain.cpp:221)
  triclinic box = (0 0 0) to (8.3636545 8.9680963 46.601869) with tilt (-8.3636545 0 0)
WARNING: Triclinic box skew is large. LAMMPS will run inefficiently. (src/domain.cpp:221)
  triclinic box = (0 0 0) to (8.3636545 8.9680963 46.601869) with tilt (-8.3636545 0 0)
WARNING: Triclinic box skew is large. LAMMPS will run inefficiently. (src/domain.cpp:221)
  triclinic box = (0 0 0) to (8.3636545 8.9680963 46.601869) with tilt (-8.3636545 0 0)
WARNING: Triclinic box skew is large. LAMMPS will run inefficiently. (src/domain.cpp:221)
  triclinic box = (0 0 0) to (8.3636545 8.9680963 46.601869) with tilt (-8.3636545 0 0)
echo none
run 0
WARNING: No fixes with time integration, atoms won't move (src/verlet.cpp:60)
Per MPI rank memory allocation (min/avg/max) = 8.724 | 8.724 | 8.724 Mbytes
    PotEng          Pxx           E_mol          E_coul    
-134.61342      5654.9143      0              0            
Loop time of 1.362e-06 on 1 procs for 0 steps with 48 atoms

220.3% CPU use with 1 MPI tasks x 1 OpenMP threads

MPI task timing breakdown:
Section |  min time  |  avg time  |  max time  |%varavg| %total
---------------------------------------------------------------
Pair    | 0          | 0          | 0          |   0.0 |  0.00
Neigh   | 0          | 0          | 0          |   0.0 |  0.00
Comm    | 0          | 0          | 0          |   0.0 |  0.00
Output  | 0          | 0          | 0          |   0.0 |  0.00
Modify  | 0          | 0          | 0          |   0.0 |  0.00
Other   |            | 1.362e-06  |            |       |100.00

Nlocal:             48 ave          48 max          48 min
Histogram: 1 0 0 0 0 0 0 0 0 0
Nghost:            394 ave         394 max         394 min
Histogram: 1 0 0 0 0 0 0 0 0 0
Neighs:           1304 ave        1304 max        1304 min
Histogram: 1 0 0 0 0 0 0 0 0 0
FullNghs:         2608 ave        2608 max        2608 min
Histogram: 1 0 0 0 0 0 0 0 0 0

Total # of neighbors = 2608
Ave neighs/atom = 54.333333
Neighbor list builds = 0
Dangerous builds = 0
set atom * x 0.0 y 0.0 z 0.0
Setting atom values ...
  48 settings made for x
  48 settings made for y
  48 settings made for z
change_box all     x final 0 8.3636544974664 y final 0 8.968096340511282 z final 0 46.60186917768427      xy final -8.3636544974664 xz final 0.0 yz final 0.0 units box
Changing box ...
WARNING: Triclinic box skew is large. LAMMPS will run inefficiently. (src/domain.cpp:221)
  triclinic box = (0 0 0) to (8.3636545 8.9680963 46.601869) with tilt (-8.3636545 0 0)
WARNING: Triclinic box skew is large. LAMMPS will run inefficiently. (src/domain.cpp:221)
  triclinic box = (0 0 0) to (8.3636545 8.9680963 46.601869) with tilt (-8.3636545 0 0)
WARNING: Triclinic box skew is large. LAMMPS will run inefficiently. (src/domain.cpp:221)
  triclinic box = (0 0 0) to (8.3636545 8.9680963 46.601869) with tilt (-8.3636545 0 0)
WARNING: Triclinic box skew is large. LAMMPS will run inefficiently. (src/domain.cpp:221)
  triclinic box = (0 0 0) to (8.3636545 8.9680963 46.601869) with tilt (-8.3636545 0 0)
WARNING: Triclinic box skew is large. LAMMPS will run inefficiently. (src/domain.cpp:221)
  triclinic box = (0 0 0) to (8.3636545 8.9680963 46.601869) with tilt (-8.3636545 0 0)
WARNING: Triclinic box skew is large. LAMMPS will run inefficiently. (src/domain.cpp:221)
  triclinic box = (0 0 0) to (8.3636545 8.9680963 46.601869) with tilt (-8.3636545 0 0)
echo none
run 0
WARNING: No fixes with time integration, atoms won't move (src/verlet.cpp:60)
Per MPI rank memory allocation (min/avg/max) = 8.724 | 8.724 | 8.724 Mbytes
    PotEng          Pxx           E_mol          E_coul    
-134.72208      5247.6833      0              0            
Loop time of 1.306e-06 on 1 procs for 0 steps with 48 atoms

153.1% CPU use with 1 MPI tasks x 1 OpenMP threads

MPI task timing breakdown:
Section |  min time  |  avg time  |  max time  |%varavg| %total
---------------------------------------------------------------
Pair    | 0          | 0          | 0          |   0.0 |  0.00
Neigh   | 0          | 0          | 0          |   0.0 |  0.00
Comm    | 0          | 0          | 0          |   0.0 |  0.00
Output  | 0          | 0          | 0          |   0.0 |  0.00
Modify  | 0          | 0          | 0          |   0.0 |  0.00
Other   |            | 1.306e-06  |            |       |100.00

Nlocal:             48 ave          48 max          48 min
Histogram: 1 0 0 0 0 0 0 0 0 0
Nghost:            398 ave         398 max         398 min
Histogram: 1 0 0 0 0 0 0 0 0 0
Neighs:           1304 ave        1304 max        1304 min
Histogram: 1 0 0 0 0 0 0 0 0 0
FullNghs:         2608 ave        2608 max        2608 min
Histogram: 1 0 0 0 0 0 0 0 0 0

Total # of neighbors = 2608
Ave neighs/atom = 54.333333
Neighbor list builds = 0
Dangerous builds = 0
set atom * x 0.0 y 0.0 z 0.0
Setting atom values ...
  48 settings made for x
  48 settings made for y
  48 settings made for z
change_box all     x final 0 8.3636544974664 y final 0 8.968096340511282 z final 0 46.60186917768427      xy final -8.3636544974664 xz final 0.0 yz final 0.0 units box
Changing box ...
WARNING: Triclinic box skew is large. LAMMPS will run inefficiently. (src/domain.cpp:221)
  triclinic box = (0 0 0) to (8.3636545 8.9680963 46.601869) with tilt (-8.3636545 0 0)
WARNING: Triclinic box skew is large. LAMMPS will run inefficiently. (src/domain.cpp:221)
  triclinic box = (0 0 0) to (8.3636545 8.9680963 46.601869) with tilt (-8.3636545 0 0)
WARNING: Triclinic box skew is large. LAMMPS will run inefficiently. (src/domain.cpp:221)
  triclinic box = (0 0 0) to (8.3636545 8.9680963 46.601869) with tilt (-8.3636545 0 0)
WARNING: Triclinic box skew is large. LAMMPS will run inefficiently. (src/domain.cpp:221)
  triclinic box = (0 0 0) to (8.3636545 8.9680963 46.601869) with tilt (-8.3636545 0 0)
WARNING: Triclinic box skew is large. LAMMPS will run inefficiently. (src/domain.cpp:221)
  triclinic box = (0 0 0) to (8.3636545 8.9680963 46.601869) with tilt (-8.3636545 0 0)
WARNING: Triclinic box skew is large. LAMMPS will run inefficiently. (src/domain.cpp:221)
  triclinic box = (0 0 0) to (8.3636545 8.9680963 46.601869) with tilt (-8.3636545 0 0)
echo none
run 0
WARNING: No fixes with time integration, atoms won't move (src/verlet.cpp:60)
Per MPI rank memory allocation (min/avg/max) = 8.724 | 8.724 | 8.724 Mbytes
    PotEng          Pxx           E_mol          E_coul    
-134.81719      5065.9223      0              0            
Loop time of 1.26e-06 on 1 procs for 0 steps with 48 atoms

158.7% CPU use with 1 MPI tasks x 1 OpenMP threads

MPI task timing breakdown:
Section |  min time  |  avg time  |  max time  |%varavg| %total
---------------------------------------------------------------
Pair    | 0          | 0          | 0          |   0.0 |  0.00
Neigh   | 0          | 0          | 0          |   0.0 |  0.00
Comm    | 0          | 0          | 0          |   0.0 |  0.00
Output  | 0          | 0          | 0          |   0.0 |  0.00
Modify  | 0          | 0          | 0          |   0.0 |  0.00
Other   |            | 1.26e-06   |            |       |100.00

Nlocal:             48 ave          48 max          48 min
Histogram: 1 0 0 0 0 0 0 0 0 0
Nghost:            398 ave         398 max         398 min
Histogram: 1 0 0 0 0 0 0 0 0 0
Neighs:           1312 ave        1312 max        1312 min
Histogram: 1 0 0 0 0 0 0 0 0 0
FullNghs:         2624 ave        2624 max        2624 min
Histogram: 1 0 0 0 0 0 0 0 0 0

Total # of neighbors = 2624
Ave neighs/atom = 54.666667
Neighbor list builds = 0
Dangerous builds = 0
set atom * x 0.0 y 0.0 z 0.0
Setting atom values ...
  48 settings made for x
  48 settings made for y
  48 settings made for z
change_box all     x final 0 8.3636544974664 y final 0 8.968096340511282 z final 0 46.60186917768427      xy final -8.3636544974664 xz final 0.0 yz final 0.0 units box
Changing box ...
WARNING: Triclinic box skew is large. LAMMPS will run inefficiently. (src/domain.cpp:221)
  triclinic box = (0 0 0) to (8.3636545 8.9680963 46.601869) with tilt (-8.3636545 0 0)
WARNING: Triclinic box skew is large. LAMMPS will run inefficiently. (src/domain.cpp:221)
  triclinic box = (0 0 0) to (8.3636545 8.9680963 46.601869) with tilt (-8.3636545 0 0)
WARNING: Triclinic box skew is large. LAMMPS will run inefficiently. (src/domain.cpp:221)
  triclinic box = (0 0 0) to (8.3636545 8.9680963 46.601869) with tilt (-8.3636545 0 0)
WARNING: Triclinic box skew is large. LAMMPS will run inefficiently. (src/domain.cpp:221)
  triclinic box = (0 0 0) to (8.3636545 8.9680963 46.601869) with tilt (-8.3636545 0 0)
WARNING: Triclinic box skew is large. LAMMPS will run inefficiently. (src/domain.cpp:221)
  triclinic box = (0 0 0) to (8.3636545 8.9680963 46.601869) with tilt (-8.3636545 0 0)
WARNING: Triclinic box skew is large. LAMMPS will run inefficiently. (src/domain.cpp:221)
  triclinic box = (0 0 0) to (8.3636545 8.9680963 46.601869) with tilt (-8.3636545 0 0)
echo none
run 0
WARNING: No fixes with time integration, atoms won't move (src/verlet.cpp:60)
Per MPI rank memory allocation (min/avg/max) = 8.724 | 8.724 | 8.724 Mbytes
    PotEng          Pxx           E_mol          E_coul    
-134.89084      5012.497       0              0            
Loop time of 9.32e-07 on 1 procs for 0 steps with 48 atoms

107.3% CPU use with 1 MPI tasks x 1 OpenMP threads

MPI task timing breakdown:
Section |  min time  |  avg time  |  max time  |%varavg| %total
---------------------------------------------------------------
Pair    | 0          | 0          | 0          |   0.0 |  0.00
Neigh   | 0          | 0          | 0          |   0.0 |  0.00
Comm    | 0          | 0          | 0          |   0.0 |  0.00
Output  | 0          | 0          | 0          |   0.0 |  0.00
Modify  | 0          | 0          | 0          |   0.0 |  0.00
Other   |            | 9.32e-07   |            |       |100.00

Nlocal:             48 ave          48 max          48 min
Histogram: 1 0 0 0 0 0 0 0 0 0
Nghost:            394 ave         394 max         394 min
Histogram: 1 0 0 0 0 0 0 0 0 0
Neighs:           1312 ave        1312 max        1312 min
Histogram: 1 0 0 0 0 0 0 0 0 0
FullNghs:         2624 ave        2624 max        2624 min
Histogram: 1 0 0 0 0 0 0 0 0 0

Total # of neighbors = 2624
Ave neighs/atom = 54.666667
Neighbor list builds = 0
Dangerous builds = 0
set atom * x 0.0 y 0.0 z 0.0
Setting atom values ...
  48 settings made for x
  48 settings made for y
  48 settings made for z
change_box all     x final 0 8.3636544974664 y final 0 8.968096340511282 z final 0 46.60186917768427      xy final -8.3636544974664 xz final 0.0 yz final 0.0 units box
Changing box ...
WARNING: Triclinic box skew is large. LAMMPS will run inefficiently. (src/domain.cpp:221)
  triclinic box = (0 0 0) to (8.3636545 8.9680963 46.601869) with tilt (-8.3636545 0 0)
WARNING: Triclinic box skew is large. LAMMPS will run inefficiently. (src/domain.cpp:221)
  triclinic box = (0 0 0) to (8.3636545 8.9680963 46.601869) with tilt (-8.3636545 0 0)
WARNING: Triclinic box skew is large. LAMMPS will run inefficiently. (src/domain.cpp:221)
  triclinic box = (0 0 0) to (8.3636545 8.9680963 46.601869) with tilt (-8.3636545 0 0)
WARNING: Triclinic box skew is large. LAMMPS will run inefficiently. (src/domain.cpp:221)
  triclinic box = (0 0 0) to (8.3636545 8.9680963 46.601869) with tilt (-8.3636545 0 0)
WARNING: Triclinic box skew is large. LAMMPS will run inefficiently. (src/domain.cpp:221)
  triclinic box = (0 0 0) to (8.3636545 8.9680963 46.601869) with tilt (-8.3636545 0 0)
WARNING: Triclinic box skew is large. LAMMPS will run inefficiently. (src/domain.cpp:221)
  triclinic box = (0 0 0) to (8.3636545 8.9680963 46.601869) with tilt (-8.3636545 0 0)
echo none
run 0
WARNING: No fixes with time integration, atoms won't move (src/verlet.cpp:60)
Per MPI rank memory allocation (min/avg/max) = 8.724 | 8.724 | 8.724 Mbytes
    PotEng          Pxx           E_mol          E_coul    
-134.96846      4973.17        0              0            
Loop time of 9.61e-07 on 1 procs for 0 steps with 48 atoms

208.1% CPU use with 1 MPI tasks x 1 OpenMP threads

MPI task timing breakdown:
Section |  min time  |  avg time  |  max time  |%varavg| %total
---------------------------------------------------------------
Pair    | 0          | 0          | 0          |   0.0 |  0.00
Neigh   | 0          | 0          | 0          |   0.0 |  0.00
Comm    | 0          | 0          | 0          |   0.0 |  0.00
Output  | 0          | 0          | 0          |   0.0 |  0.00
Modify  | 0          | 0          | 0          |   0.0 |  0.00
Other   |            | 9.61e-07   |            |       |100.00

Nlocal:             48 ave          48 max          48 min
Histogram: 1 0 0 0 0 0 0 0 0 0
Nghost:            394 ave         394 max         394 min
Histogram: 1 0 0 0 0 0 0 0 0 0
Neighs:           1312 ave        1312 max        1312 min
Histogram: 1 0 0 0 0 0 0 0 0 0
FullNghs:         2624 ave        2624 max        2624 min
Histogram: 1 0 0 0 0 0 0 0 0 0

Total # of neighbors = 2624
Ave neighs/atom = 54.666667
Neighbor list builds = 0
Dangerous builds = 0
set atom * x 0.0 y 0.0 z 0.0
Setting atom values ...
  48 settings made for x
  48 settings made for y
  48 settings made for z
change_box all     x final 0 8.3636544974664 y final 0 8.968096340511282 z final 0 46.60186917768427      xy final -8.3636544974664 xz final 0.0 yz final 0.0 units box
Changing box ...
WARNING: Triclinic box skew is large. LAMMPS will run inefficiently. (src/domain.cpp:221)
  triclinic box = (0 0 0) to (8.3636545 8.9680963 46.601869) with tilt (-8.3636545 0 0)
WARNING: Triclinic box skew is large. LAMMPS will run inefficiently. (src/domain.cpp:221)
  triclinic box = (0 0 0) to (8.3636545 8.9680963 46.601869) with tilt (-8.3636545 0 0)
WARNING: Triclinic box skew is large. LAMMPS will run inefficiently. (src/domain.cpp:221)
  triclinic box = (0 0 0) to (8.3636545 8.9680963 46.601869) with tilt (-8.3636545 0 0)
WARNING: Triclinic box skew is large. LAMMPS will run inefficiently. (src/domain.cpp:221)
  triclinic box = (0 0 0) to (8.3636545 8.9680963 46.601869) with tilt (-8.3636545 0 0)
WARNING: Triclinic box skew is large. LAMMPS will run inefficiently. (src/domain.cpp:221)
  triclinic box = (0 0 0) to (8.3636545 8.9680963 46.601869) with tilt (-8.3636545 0 0)
WARNING: Triclinic box skew is large. LAMMPS will run inefficiently. (src/domain.cpp:221)
  triclinic box = (0 0 0) to (8.3636545 8.9680963 46.601869) with tilt (-8.3636545 0 0)
echo none
run 0
WARNING: No fixes with time integration, atoms won't move (src/verlet.cpp:60)
Per MPI rank memory allocation (min/avg/max) = 8.724 | 8.724 | 8.724 Mbytes
    PotEng          Pxx           E_mol          E_coul    
-135.05335      4892.6357      0              0            
Loop time of 1.417e-06 on 1 procs for 0 steps with 48 atoms

211.7% CPU use with 1 MPI tasks x 1 OpenMP threads

MPI task timing breakdown:
Section |  min time  |  avg time  |  max time  |%varavg| %total
---------------------------------------------------------------
Pair    | 0          | 0          | 0          |   0.0 |  0.00
Neigh   | 0          | 0          | 0          |   0.0 |  0.00
Comm    | 0          | 0          | 0          |   0.0 |  0.00
Output  | 0          | 0          | 0          |   0.0 |  0.00
Modify  | 0          | 0          | 0          |   0.0 |  0.00
Other   |            | 1.417e-06  |            |       |100.00

Nlocal:             48 ave          48 max          48 min
Histogram: 1 0 0 0 0 0 0 0 0 0
Nghost:            394 ave         394 max         394 min
Histogram: 1 0 0 0 0 0 0 0 0 0
Neighs:           1312 ave        1312 max        1312 min
Histogram: 1 0 0 0 0 0 0 0 0 0
FullNghs:         2624 ave        2624 max        2624 min
Histogram: 1 0 0 0 0 0 0 0 0 0

Total # of neighbors = 2624
Ave neighs/atom = 54.666667
Neighbor list builds = 0
Dangerous builds = 0
set atom * x 0.0 y 0.0 z 0.0
Setting atom values ...
  48 settings made for x
  48 settings made for y
  48 settings made for z
change_box all     x final 0 8.3636544974664 y final 0 8.968096340511282 z final 0 46.60186917768427      xy final -8.3636544974664 xz final 0.0 yz final 0.0 units box
Changing box ...
WARNING: Triclinic box skew is large. LAMMPS will run inefficiently. (src/domain.cpp:221)
  triclinic box = (0 0 0) to (8.3636545 8.9680963 46.601869) with tilt (-8.3636545 0 0)
WARNING: Triclinic box skew is large. LAMMPS will run inefficiently. (src/domain.cpp:221)
  triclinic box = (0 0 0) to (8.3636545 8.9680963 46.601869) with tilt (-8.3636545 0 0)
WARNING: Triclinic box skew is large. LAMMPS will run inefficiently. (src/domain.cpp:221)
  triclinic box = (0 0 0) to (8.3636545 8.9680963 46.601869) with tilt (-8.3636545 0 0)
WARNING: Triclinic box skew is large. LAMMPS will run inefficiently. (src/domain.cpp:221)
  triclinic box = (0 0 0) to (8.3636545 8.9680963 46.601869) with tilt (-8.3636545 0 0)
WARNING: Triclinic box skew is large. LAMMPS will run inefficiently. (src/domain.cpp:221)
  triclinic box = (0 0 0) to (8.3636545 8.9680963 46.601869) with tilt (-8.3636545 0 0)
WARNING: Triclinic box skew is large. LAMMPS will run inefficiently. (src/domain.cpp:221)
  triclinic box = (0 0 0) to (8.3636545 8.9680963 46.601869) with tilt (-8.3636545 0 0)
echo none
run 0
WARNING: No fixes with time integration, atoms won't move (src/verlet.cpp:60)
Per MPI rank memory allocation (min/avg/max) = 8.724 | 8.724 | 8.724 Mbytes
    PotEng          Pxx           E_mol          E_coul    
-135.12555      4709.1296      0              0            
Loop time of 1.37e-06 on 1 procs for 0 steps with 48 atoms

219.0% CPU use with 1 MPI tasks x 1 OpenMP threads

MPI task timing breakdown:
Section |  min time  |  avg time  |  max time  |%varavg| %total
---------------------------------------------------------------
Pair    | 0          | 0          | 0          |   0.0 |  0.00
Neigh   | 0          | 0          | 0          |   0.0 |  0.00
Comm    | 0          | 0          | 0          |   0.0 |  0.00
Output  | 0          | 0          | 0          |   0.0 |  0.00
Modify  | 0          | 0          | 0          |   0.0 |  0.00
Other   |            | 1.37e-06   |            |       |100.00

Nlocal:             48 ave          48 max          48 min
Histogram: 1 0 0 0 0 0 0 0 0 0
Nghost:            394 ave         394 max         394 min
Histogram: 1 0 0 0 0 0 0 0 0 0
Neighs:           1312 ave        1312 max        1312 min
Histogram: 1 0 0 0 0 0 0 0 0 0
FullNghs:         2624 ave        2624 max        2624 min
Histogram: 1 0 0 0 0 0 0 0 0 0

Total # of neighbors = 2624
Ave neighs/atom = 54.666667
Neighbor list builds = 0
Dangerous builds = 0
set atom * x 0.0 y 0.0 z 0.0
Setting atom values ...
  48 settings made for x
  48 settings made for y
  48 settings made for z
change_box all     x final 0 8.3636544974664 y final 0 8.968096340511282 z final 0 46.60186917768427      xy final -8.3636544974664 xz final 0.0 yz final 0.0 units box
Changing box ...
WARNING: Triclinic box skew is large. LAMMPS will run inefficiently. (src/domain.cpp:221)
  triclinic box = (0 0 0) to (8.3636545 8.9680963 46.601869) with tilt (-8.3636545 0 0)
WARNING: Triclinic box skew is large. LAMMPS will run inefficiently. (src/domain.cpp:221)
  triclinic box = (0 0 0) to (8.3636545 8.9680963 46.601869) with tilt (-8.3636545 0 0)
WARNING: Triclinic box skew is large. LAMMPS will run inefficiently. (src/domain.cpp:221)
  triclinic box = (0 0 0) to (8.3636545 8.9680963 46.601869) with tilt (-8.3636545 0 0)
WARNING: Triclinic box skew is large. LAMMPS will run inefficiently. (src/domain.cpp:221)
  triclinic box = (0 0 0) to (8.3636545 8.9680963 46.601869) with tilt (-8.3636545 0 0)
WARNING: Triclinic box skew is large. LAMMPS will run inefficiently. (src/domain.cpp:221)
  triclinic box = (0 0 0) to (8.3636545 8.9680963 46.601869) with tilt (-8.3636545 0 0)
WARNING: Triclinic box skew is large. LAMMPS will run inefficiently. (src/domain.cpp:221)
  triclinic box = (0 0 0) to (8.3636545 8.9680963 46.601869) with tilt (-8.3636545 0 0)
echo none
run 0
WARNING: No fixes with time integration, atoms won't move (src/verlet.cpp:60)
Per MPI rank memory allocation (min/avg/max) = 8.724 | 8.724 | 8.724 Mbytes
    PotEng          Pxx           E_mol          E_coul    
-135.17802      4387.5598      0              0            
Loop time of 1.304e-06 on 1 procs for 0 steps with 48 atoms

230.1% CPU use with 1 MPI tasks x 1 OpenMP threads

MPI task timing breakdown:
Section |  min time  |  avg time  |  max time  |%varavg| %total
---------------------------------------------------------------
Pair    | 0          | 0          | 0          |   0.0 |  0.00
Neigh   | 0          | 0          | 0          |   0.0 |  0.00
Comm    | 0          | 0          | 0          |   0.0 |  0.00
Output  | 0          | 0          | 0          |   0.0 |  0.00
Modify  | 0          | 0          | 0          |   0.0 |  0.00
Other   |            | 1.304e-06  |            |       |100.00

Nlocal:             48 ave          48 max          48 min
Histogram: 1 0 0 0 0 0 0 0 0 0
Nghost:            394 ave         394 max         394 min
Histogram: 1 0 0 0 0 0 0 0 0 0
Neighs:           1312 ave        1312 max        1312 min
Histogram: 1 0 0 0 0 0 0 0 0 0
FullNghs:         2624 ave        2624 max        2624 min
Histogram: 1 0 0 0 0 0 0 0 0 0

Total # of neighbors = 2624
Ave neighs/atom = 54.666667
Neighbor list builds = 0
Dangerous builds = 0
set atom * x 0.0 y 0.0 z 0.0
Setting atom values ...
  48 settings made for x
  48 settings made for y
  48 settings made for z
change_box all     x final 0 8.3636544974664 y final 0 8.968096340511282 z final 0 46.60186917768427      xy final -8.3636544974664 xz final 0.0 yz final 0.0 units box
Changing box ...
  triclinic box = (0 0 0) to (8.3636545 8.9680963 46.601869) with tilt (-8.3636545 0 0)
  triclinic box = (0 0 0) to (8.3636545 8.9680963 46.601869) with tilt (-8.3636545 0 0)
  triclinic box = (0 0 0) to (8.3636545 8.9680963 46.601869) with tilt (-8.3636545 0 0)
  triclinic box = (0 0 0) to (8.3636545 8.9680963 46.601869) with tilt (-8.3636545 0 0)
  triclinic box = (0 0 0) to (8.3636545 8.9680963 46.601869) with tilt (-8.3636545 0 0)
  triclinic box = (0 0 0) to (8.3636545 8.9680963 46.601869) with tilt (-8.3636545 0 0)
echo none
run 0
Per MPI rank memory allocation (min/avg/max) = 8.724 | 8.724 | 8.724 Mbytes
    PotEng          Pxx           E_mol          E_coul    
WARNING: Too many warnings: 107 vs 100. All future warnings will be suppressed (src/thermo.cpp:478)
-135.21156      4014.518       0              0            
Loop time of 1.713e-06 on 1 procs for 0 steps with 48 atoms

291.9% CPU use with 1 MPI tasks x 1 OpenMP threads

MPI task timing breakdown:
Section |  min time  |  avg time  |  max time  |%varavg| %total
---------------------------------------------------------------
Pair    | 0          | 0          | 0          |   0.0 |  0.00
Neigh   | 0          | 0          | 0          |   0.0 |  0.00
Comm    | 0          | 0          | 0          |   0.0 |  0.00
Output  | 0          | 0          | 0          |   0.0 |  0.00
Modify  | 0          | 0          | 0          |   0.0 |  0.00
Other   |            | 1.713e-06  |            |       |100.00

Nlocal:             48 ave          48 max          48 min
Histogram: 1 0 0 0 0 0 0 0 0 0
Nghost:            394 ave         394 max         394 min
Histogram: 1 0 0 0 0 0 0 0 0 0
Neighs:           1312 ave        1312 max        1312 min
Histogram: 1 0 0 0 0 0 0 0 0 0
FullNghs:         2624 ave        2624 max        2624 min
Histogram: 1 0 0 0 0 0 0 0 0 0

Total # of neighbors = 2624
Ave neighs/atom = 54.666667
Neighbor list builds = 0
Dangerous builds = 0
set atom * x 0.0 y 0.0 z 0.0
Setting atom values ...
  48 settings made for x
  48 settings made for y
  48 settings made for z
change_box all     x final 0 8.3636544974664 y final 0 8.968096340511282 z final 0 46.60186917768427      xy final -8.3636544974664 xz final 0.0 yz final 0.0 units box
Changing box ...
  triclinic box = (0 0 0) to (8.3636545 8.9680963 46.601869) with tilt (-8.3636545 0 0)
  triclinic box = (0 0 0) to (8.3636545 8.9680963 46.601869) with tilt (-8.3636545 0 0)
  triclinic box = (0 0 0) to (8.3636545 8.9680963 46.601869) with tilt (-8.3636545 0 0)
  triclinic box = (0 0 0) to (8.3636545 8.9680963 46.601869) with tilt (-8.3636545 0 0)
  triclinic box = (0 0 0) to (8.3636545 8.9680963 46.601869) with tilt (-8.3636545 0 0)
  triclinic box = (0 0 0) to (8.3636545 8.9680963 46.601869) with tilt (-8.3636545 0 0)
echo none
run 0
Per MPI rank memory allocation (min/avg/max) = 8.724 | 8.724 | 8.724 Mbytes
    PotEng          Pxx           E_mol          E_coul    
-135.23054      3737.388       0              0            
Loop time of 1.399e-06 on 1 procs for 0 steps with 48 atoms

214.4% CPU use with 1 MPI tasks x 1 OpenMP threads

MPI task timing breakdown:
Section |  min time  |  avg time  |  max time  |%varavg| %total
---------------------------------------------------------------
Pair    | 0          | 0          | 0          |   0.0 |  0.00
Neigh   | 0          | 0          | 0          |   0.0 |  0.00
Comm    | 0          | 0          | 0          |   0.0 |  0.00
Output  | 0          | 0          | 0          |   0.0 |  0.00
Modify  | 0          | 0          | 0          |   0.0 |  0.00
Other   |            | 1.399e-06  |            |       |100.00

Nlocal:             48 ave          48 max          48 min
Histogram: 1 0 0 0 0 0 0 0 0 0
Nghost:            394 ave         394 max         394 min
Histogram: 1 0 0 0 0 0 0 0 0 0
Neighs:           1312 ave        1312 max        1312 min
Histogram: 1 0 0 0 0 0 0 0 0 0
FullNghs:         2624 ave        2624 max        2624 min
Histogram: 1 0 0 0 0 0 0 0 0 0

Total # of neighbors = 2624
Ave neighs/atom = 54.666667
Neighbor list builds = 0
Dangerous builds = 0
set atom * x 0.0 y 0.0 z 0.0
Setting atom values ...
  48 settings made for x
  48 settings made for y
  48 settings made for z
change_box all     x final 0 8.3636544974664 y final 0 8.968096340511282 z final 0 46.60186917768427      xy final -8.3636544974664 xz final 0.0 yz final 0.0 units box
Changing box ...
  triclinic box = (0 0 0) to (8.3636545 8.9680963 46.601869) with tilt (-8.3636545 0 0)
  triclinic box = (0 0 0) to (8.3636545 8.9680963 46.601869) with tilt (-8.3636545 0 0)
  triclinic box = (0 0 0) to (8.3636545 8.9680963 46.601869) with tilt (-8.3636545 0 0)
  triclinic box = (0 0 0) to (8.3636545 8.9680963 46.601869) with tilt (-8.3636545 0 0)
  triclinic box = (0 0 0) to (8.3636545 8.9680963 46.601869) with tilt (-8.3636545 0 0)
  triclinic box = (0 0 0) to (8.3636545 8.9680963 46.601869) with tilt (-8.3636545 0 0)
echo none
run 0
Per MPI rank memory allocation (min/avg/max) = 8.724 | 8.724 | 8.724 Mbytes
    PotEng          Pxx           E_mol          E_coul    
-135.24179      3591.2135      0              0            
Loop time of 1.462e-06 on 1 procs for 0 steps with 48 atoms

205.2% CPU use with 1 MPI tasks x 1 OpenMP threads

MPI task timing breakdown:
Section |  min time  |  avg time  |  max time  |%varavg| %total
---------------------------------------------------------------
Pair    | 0          | 0          | 0          |   0.0 |  0.00
Neigh   | 0          | 0          | 0          |   0.0 |  0.00
Comm    | 0          | 0          | 0          |   0.0 |  0.00
Output  | 0          | 0          | 0          |   0.0 |  0.00
Modify  | 0          | 0          | 0          |   0.0 |  0.00
Other   |            | 1.462e-06  |            |       |100.00

Nlocal:             48 ave          48 max          48 min
Histogram: 1 0 0 0 0 0 0 0 0 0
Nghost:            394 ave         394 max         394 min
Histogram: 1 0 0 0 0 0 0 0 0 0
Neighs:           1312 ave        1312 max        1312 min
Histogram: 1 0 0 0 0 0 0 0 0 0
FullNghs:         2624 ave        2624 max        2624 min
Histogram: 1 0 0 0 0 0 0 0 0 0

Total # of neighbors = 2624
Ave neighs/atom = 54.666667
Neighbor list builds = 0
Dangerous builds = 0
set atom * x 0.0 y 0.0 z 0.0
Setting atom values ...
  48 settings made for x
  48 settings made for y
  48 settings made for z
change_box all     x final 0 8.3636544974664 y final 0 8.968096340511282 z final 0 46.60186917768427      xy final -8.3636544974664 xz final 0.0 yz final 0.0 units box
Changing box ...
  triclinic box = (0 0 0) to (8.3636545 8.9680963 46.601869) with tilt (-8.3636545 0 0)
  triclinic box = (0 0 0) to (8.3636545 8.9680963 46.601869) with tilt (-8.3636545 0 0)
  triclinic box = (0 0 0) to (8.3636545 8.9680963 46.601869) with tilt (-8.3636545 0 0)
  triclinic box = (0 0 0) to (8.3636545 8.9680963 46.601869) with tilt (-8.3636545 0 0)
  triclinic box = (0 0 0) to (8.3636545 8.9680963 46.601869) with tilt (-8.3636545 0 0)
  triclinic box = (0 0 0) to (8.3636545 8.9680963 46.601869) with tilt (-8.3636545 0 0)
echo none
run 0
Per MPI rank memory allocation (min/avg/max) = 8.724 | 8.724 | 8.724 Mbytes
    PotEng          Pxx           E_mol          E_coul    
-135.25002      3522.6783      0              0            
Loop time of 1.363e-06 on 1 procs for 0 steps with 48 atoms

220.1% CPU use with 1 MPI tasks x 1 OpenMP threads

MPI task timing breakdown:
Section |  min time  |  avg time  |  max time  |%varavg| %total
---------------------------------------------------------------
Pair    | 0          | 0          | 0          |   0.0 |  0.00
Neigh   | 0          | 0          | 0          |   0.0 |  0.00
Comm    | 0          | 0          | 0          |   0.0 |  0.00
Output  | 0          | 0          | 0          |   0.0 |  0.00
Modify  | 0          | 0          | 0          |   0.0 |  0.00
Other   |            | 1.363e-06  |            |       |100.00

Nlocal:             48 ave          48 max          48 min
Histogram: 1 0 0 0 0 0 0 0 0 0
Nghost:            394 ave         394 max         394 min
Histogram: 1 0 0 0 0 0 0 0 0 0
Neighs:           1320 ave        1320 max        1320 min
Histogram: 1 0 0 0 0 0 0 0 0 0
FullNghs:         2640 ave        2640 max        2640 min
Histogram: 1 0 0 0 0 0 0 0 0 0

Total # of neighbors = 2640
Ave neighs/atom = 55
Neighbor list builds = 0
Dangerous builds = 0
set atom * x 0.0 y 0.0 z 0.0
Setting atom values ...
  48 settings made for x
  48 settings made for y
  48 settings made for z
change_box all     x final 0 8.3636544974664 y final 0 8.968096340511282 z final 0 46.60186917768427      xy final -8.3636544974664 xz final 0.0 yz final 0.0 units box
Changing box ...
  triclinic box = (0 0 0) to (8.3636545 8.9680963 46.601869) with tilt (-8.3636545 0 0)
  triclinic box = (0 0 0) to (8.3636545 8.9680963 46.601869) with tilt (-8.3636545 0 0)
  triclinic box = (0 0 0) to (8.3636545 8.9680963 46.601869) with tilt (-8.3636545 0 0)
  triclinic box = (0 0 0) to (8.3636545 8.9680963 46.601869) with tilt (-8.3636545 0 0)
  triclinic box = (0 0 0) to (8.3636545 8.9680963 46.601869) with tilt (-8.3636545 0 0)
  triclinic box = (0 0 0) to (8.3636545 8.9680963 46.601869) with tilt (-8.3636545 0 0)
echo none
run 0
Per MPI rank memory allocation (min/avg/max) = 8.724 | 8.724 | 8.724 Mbytes
    PotEng          Pxx           E_mol          E_coul    
-135.25802      3470.321       0              0            
Loop time of 8.42e-07 on 1 procs for 0 steps with 48 atoms

118.8% CPU use with 1 MPI tasks x 1 OpenMP threads

MPI task timing breakdown:
Section |  min time  |  avg time  |  max time  |%varavg| %total
---------------------------------------------------------------
Pair    | 0          | 0          | 0          |   0.0 |  0.00
Neigh   | 0          | 0          | 0          |   0.0 |  0.00
Comm    | 0          | 0          | 0          |   0.0 |  0.00
Output  | 0          | 0          | 0          |   0.0 |  0.00
Modify  | 0          | 0          | 0          |   0.0 |  0.00
Other   |            | 8.42e-07   |            |       |100.00

Nlocal:             48 ave          48 max          48 min
Histogram: 1 0 0 0 0 0 0 0 0 0
Nghost:            394 ave         394 max         394 min
Histogram: 1 0 0 0 0 0 0 0 0 0
Neighs:           1320 ave        1320 max        1320 min
Histogram: 1 0 0 0 0 0 0 0 0 0
FullNghs:         2640 ave        2640 max        2640 min
Histogram: 1 0 0 0 0 0 0 0 0 0

Total # of neighbors = 2640
Ave neighs/atom = 55
Neighbor list builds = 0
Dangerous builds = 0
set atom * x 0.0 y 0.0 z 0.0
Setting atom values ...
  48 settings made for x
  48 settings made for y
  48 settings made for z
change_box all     x final 0 8.3636544974664 y final 0 8.968096340511282 z final 0 46.60186917768427      xy final -8.3636544974664 xz final 0.0 yz final 0.0 units box
Changing box ...
  triclinic box = (0 0 0) to (8.3636545 8.9680963 46.601869) with tilt (-8.3636545 0 0)
  triclinic box = (0 0 0) to (8.3636545 8.9680963 46.601869) with tilt (-8.3636545 0 0)
  triclinic box = (0 0 0) to (8.3636545 8.9680963 46.601869) with tilt (-8.3636545 0 0)
  triclinic box = (0 0 0) to (8.3636545 8.9680963 46.601869) with tilt (-8.3636545 0 0)
  triclinic box = (0 0 0) to (8.3636545 8.9680963 46.601869) with tilt (-8.3636545 0 0)
  triclinic box = (0 0 0) to (8.3636545 8.9680963 46.601869) with tilt (-8.3636545 0 0)
echo none
run 0
Per MPI rank memory allocation (min/avg/max) = 8.724 | 8.724 | 8.724 Mbytes
    PotEng          Pxx           E_mol          E_coul    
-135.26799      3372.6429      0              0            
Loop time of 1.083e-06 on 1 procs for 0 steps with 48 atoms

184.7% CPU use with 1 MPI tasks x 1 OpenMP threads

MPI task timing breakdown:
Section |  min time  |  avg time  |  max time  |%varavg| %total
---------------------------------------------------------------
Pair    | 0          | 0          | 0          |   0.0 |  0.00
Neigh   | 0          | 0          | 0          |   0.0 |  0.00
Comm    | 0          | 0          | 0          |   0.0 |  0.00
Output  | 0          | 0          | 0          |   0.0 |  0.00
Modify  | 0          | 0          | 0          |   0.0 |  0.00
Other   |            | 1.083e-06  |            |       |100.00

Nlocal:             48 ave          48 max          48 min
Histogram: 1 0 0 0 0 0 0 0 0 0
Nghost:            394 ave         394 max         394 min
Histogram: 1 0 0 0 0 0 0 0 0 0
Neighs:           1320 ave        1320 max        1320 min
Histogram: 1 0 0 0 0 0 0 0 0 0
FullNghs:         2640 ave        2640 max        2640 min
Histogram: 1 0 0 0 0 0 0 0 0 0

Total # of neighbors = 2640
Ave neighs/atom = 55
Neighbor list builds = 0
Dangerous builds = 0
set atom * x 0.0 y 0.0 z 0.0
Setting atom values ...
  48 settings made for x
  48 settings made for y
  48 settings made for z
change_box all     x final 0 8.3636544974664 y final 0 8.968096340511282 z final 0 46.60186917768427      xy final -8.3636544974664 xz final 0.0 yz final 0.0 units box
Changing box ...
  triclinic box = (0 0 0) to (8.3636545 8.9680963 46.601869) with tilt (-8.3636545 0 0)
  triclinic box = (0 0 0) to (8.3636545 8.9680963 46.601869) with tilt (-8.3636545 0 0)
  triclinic box = (0 0 0) to (8.3636545 8.9680963 46.601869) with tilt (-8.3636545 0 0)
  triclinic box = (0 0 0) to (8.3636545 8.9680963 46.601869) with tilt (-8.3636545 0 0)
  triclinic box = (0 0 0) to (8.3636545 8.9680963 46.601869) with tilt (-8.3636545 0 0)
  triclinic box = (0 0 0) to (8.3636545 8.9680963 46.601869) with tilt (-8.3636545 0 0)
echo none
run 0
Per MPI rank memory allocation (min/avg/max) = 8.724 | 8.724 | 8.724 Mbytes
    PotEng          Pxx           E_mol          E_coul    
-135.28035      3174.2506      0              0            
Loop time of 8.99e-07 on 1 procs for 0 steps with 48 atoms

222.5% CPU use with 1 MPI tasks x 1 OpenMP threads

MPI task timing breakdown:
Section |  min time  |  avg time  |  max time  |%varavg| %total
---------------------------------------------------------------
Pair    | 0          | 0          | 0          |   0.0 |  0.00
Neigh   | 0          | 0          | 0          |   0.0 |  0.00
Comm    | 0          | 0          | 0          |   0.0 |  0.00
Output  | 0          | 0          | 0          |   0.0 |  0.00
Modify  | 0          | 0          | 0          |   0.0 |  0.00
Other   |            | 8.99e-07   |            |       |100.00

Nlocal:             48 ave          48 max          48 min
Histogram: 1 0 0 0 0 0 0 0 0 0
Nghost:            394 ave         394 max         394 min
Histogram: 1 0 0 0 0 0 0 0 0 0
Neighs:           1320 ave        1320 max        1320 min
Histogram: 1 0 0 0 0 0 0 0 0 0
FullNghs:         2640 ave        2640 max        2640 min
Histogram: 1 0 0 0 0 0 0 0 0 0

Total # of neighbors = 2640
Ave neighs/atom = 55
Neighbor list builds = 0
Dangerous builds = 0
set atom * x 0.0 y 0.0 z 0.0
Setting atom values ...
  48 settings made for x
  48 settings made for y
  48 settings made for z
change_box all     x final 0 8.3636544974664 y final 0 8.968096340511282 z final 0 46.60186917768427      xy final -8.3636544974664 xz final 0.0 yz final 0.0 units box
Changing box ...
  triclinic box = (0 0 0) to (8.3636545 8.9680963 46.601869) with tilt (-8.3636545 0 0)
  triclinic box = (0 0 0) to (8.3636545 8.9680963 46.601869) with tilt (-8.3636545 0 0)
  triclinic box = (0 0 0) to (8.3636545 8.9680963 46.601869) with tilt (-8.3636545 0 0)
  triclinic box = (0 0 0) to (8.3636545 8.9680963 46.601869) with tilt (-8.3636545 0 0)
  triclinic box = (0 0 0) to (8.3636545 8.9680963 46.601869) with tilt (-8.3636545 0 0)
  triclinic box = (0 0 0) to (8.3636545 8.9680963 46.601869) with tilt (-8.3636545 0 0)
echo none
run 0
Per MPI rank memory allocation (min/avg/max) = 8.724 | 8.724 | 8.724 Mbytes
    PotEng          Pxx           E_mol          E_coul    
-135.29368      2866.3135      0              0            
Loop time of 1.32e-06 on 1 procs for 0 steps with 48 atoms

151.5% CPU use with 1 MPI tasks x 1 OpenMP threads

MPI task timing breakdown:
Section |  min time  |  avg time  |  max time  |%varavg| %total
---------------------------------------------------------------
Pair    | 0          | 0          | 0          |   0.0 |  0.00
Neigh   | 0          | 0          | 0          |   0.0 |  0.00
Comm    | 0          | 0          | 0          |   0.0 |  0.00
Output  | 0          | 0          | 0          |   0.0 |  0.00
Modify  | 0          | 0          | 0          |   0.0 |  0.00
Other   |            | 1.32e-06   |            |       |100.00

Nlocal:             48 ave          48 max          48 min
Histogram: 1 0 0 0 0 0 0 0 0 0
Nghost:            390 ave         390 max         390 min
Histogram: 1 0 0 0 0 0 0 0 0 0
Neighs:           1320 ave        1320 max        1320 min
Histogram: 1 0 0 0 0 0 0 0 0 0
FullNghs:         2640 ave        2640 max        2640 min
Histogram: 1 0 0 0 0 0 0 0 0 0

Total # of neighbors = 2640
Ave neighs/atom = 55
Neighbor list builds = 0
Dangerous builds = 0
set atom * x 0.0 y 0.0 z 0.0
Setting atom values ...
  48 settings made for x
  48 settings made for y
  48 settings made for z
change_box all     x final 0 8.3636544974664 y final 0 8.968096340511282 z final 0 46.60186917768427      xy final -8.3636544974664 xz final 0.0 yz final 0.0 units box
Changing box ...
  triclinic box = (0 0 0) to (8.3636545 8.9680963 46.601869) with tilt (-8.3636545 0 0)
  triclinic box = (0 0 0) to (8.3636545 8.9680963 46.601869) with tilt (-8.3636545 0 0)
  triclinic box = (0 0 0) to (8.3636545 8.9680963 46.601869) with tilt (-8.3636545 0 0)
  triclinic box = (0 0 0) to (8.3636545 8.9680963 46.601869) with tilt (-8.3636545 0 0)
  triclinic box = (0 0 0) to (8.3636545 8.9680963 46.601869) with tilt (-8.3636545 0 0)
  triclinic box = (0 0 0) to (8.3636545 8.9680963 46.601869) with tilt (-8.3636545 0 0)
echo none
run 0
Per MPI rank memory allocation (min/avg/max) = 8.724 | 8.724 | 8.724 Mbytes
    PotEng          Pxx           E_mol          E_coul    
-135.30671      2496.888       0              0            
Loop time of 9.86e-07 on 1 procs for 0 steps with 48 atoms

202.8% CPU use with 1 MPI tasks x 1 OpenMP threads

MPI task timing breakdown:
Section |  min time  |  avg time  |  max time  |%varavg| %total
---------------------------------------------------------------
Pair    | 0          | 0          | 0          |   0.0 |  0.00
Neigh   | 0          | 0          | 0          |   0.0 |  0.00
Comm    | 0          | 0          | 0          |   0.0 |  0.00
Output  | 0          | 0          | 0          |   0.0 |  0.00
Modify  | 0          | 0          | 0          |   0.0 |  0.00
Other   |            | 9.86e-07   |            |       |100.00

Nlocal:             48 ave          48 max          48 min
Histogram: 1 0 0 0 0 0 0 0 0 0
Nghost:            390 ave         390 max         390 min
Histogram: 1 0 0 0 0 0 0 0 0 0
Neighs:           1312 ave        1312 max        1312 min
Histogram: 1 0 0 0 0 0 0 0 0 0
FullNghs:         2624 ave        2624 max        2624 min
Histogram: 1 0 0 0 0 0 0 0 0 0

Total # of neighbors = 2624
Ave neighs/atom = 54.666667
Neighbor list builds = 0
Dangerous builds = 0
set atom * x 0.0 y 0.0 z 0.0
Setting atom values ...
  48 settings made for x
  48 settings made for y
  48 settings made for z
change_box all     x final 0 8.3636544974664 y final 0 8.968096340511282 z final 0 46.60186917768427      xy final -8.3636544974664 xz final 0.0 yz final 0.0 units box
Changing box ...
  triclinic box = (0 0 0) to (8.3636545 8.9680963 46.601869) with tilt (-8.3636545 0 0)
  triclinic box = (0 0 0) to (8.3636545 8.9680963 46.601869) with tilt (-8.3636545 0 0)
  triclinic box = (0 0 0) to (8.3636545 8.9680963 46.601869) with tilt (-8.3636545 0 0)
  triclinic box = (0 0 0) to (8.3636545 8.9680963 46.601869) with tilt (-8.3636545 0 0)
  triclinic box = (0 0 0) to (8.3636545 8.9680963 46.601869) with tilt (-8.3636545 0 0)
  triclinic box = (0 0 0) to (8.3636545 8.9680963 46.601869) with tilt (-8.3636545 0 0)
echo none
run 0
Per MPI rank memory allocation (min/avg/max) = 8.724 | 8.724 | 8.724 Mbytes
    PotEng          Pxx           E_mol          E_coul    
-135.31857      2134.6588      0              0            
Loop time of 8.63e-07 on 1 procs for 0 steps with 48 atoms

231.7% CPU use with 1 MPI tasks x 1 OpenMP threads

MPI task timing breakdown:
Section |  min time  |  avg time  |  max time  |%varavg| %total
---------------------------------------------------------------
Pair    | 0          | 0          | 0          |   0.0 |  0.00
Neigh   | 0          | 0          | 0          |   0.0 |  0.00
Comm    | 0          | 0          | 0          |   0.0 |  0.00
Output  | 0          | 0          | 0          |   0.0 |  0.00
Modify  | 0          | 0          | 0          |   0.0 |  0.00
Other   |            | 8.63e-07   |            |       |100.00

Nlocal:             48 ave          48 max          48 min
Histogram: 1 0 0 0 0 0 0 0 0 0
Nghost:            390 ave         390 max         390 min
Histogram: 1 0 0 0 0 0 0 0 0 0
Neighs:           1312 ave        1312 max        1312 min
Histogram: 1 0 0 0 0 0 0 0 0 0
FullNghs:         2624 ave        2624 max        2624 min
Histogram: 1 0 0 0 0 0 0 0 0 0

Total # of neighbors = 2624
Ave neighs/atom = 54.666667
Neighbor list builds = 0
Dangerous builds = 0
set atom * x 0.0 y 0.0 z 0.0
Setting atom values ...
  48 settings made for x
  48 settings made for y
  48 settings made for z
change_box all     x final 0 8.3636544974664 y final 0 8.968096340511282 z final 0 46.60186917768427      xy final -8.3636544974664 xz final 0.0 yz final 0.0 units box
Changing box ...
  triclinic box = (0 0 0) to (8.3636545 8.9680963 46.601869) with tilt (-8.3636545 0 0)
  triclinic box = (0 0 0) to (8.3636545 8.9680963 46.601869) with tilt (-8.3636545 0 0)
  triclinic box = (0 0 0) to (8.3636545 8.9680963 46.601869) with tilt (-8.3636545 0 0)
  triclinic box = (0 0 0) to (8.3636545 8.9680963 46.601869) with tilt (-8.3636545 0 0)
  triclinic box = (0 0 0) to (8.3636545 8.9680963 46.601869) with tilt (-8.3636545 0 0)
  triclinic box = (0 0 0) to (8.3636545 8.9680963 46.601869) with tilt (-8.3636545 0 0)
echo none
run 0
Per MPI rank memory allocation (min/avg/max) = 8.724 | 8.724 | 8.724 Mbytes
    PotEng          Pxx           E_mol          E_coul    
-135.32779      1865.5099      0              0            
Loop time of 9.67e-07 on 1 procs for 0 steps with 48 atoms

206.8% CPU use with 1 MPI tasks x 1 OpenMP threads

MPI task timing breakdown:
Section |  min time  |  avg time  |  max time  |%varavg| %total
---------------------------------------------------------------
Pair    | 0          | 0          | 0          |   0.0 |  0.00
Neigh   | 0          | 0          | 0          |   0.0 |  0.00
Comm    | 0          | 0          | 0          |   0.0 |  0.00
Output  | 0          | 0          | 0          |   0.0 |  0.00
Modify  | 0          | 0          | 0          |   0.0 |  0.00
Other   |            | 9.67e-07   |            |       |100.00

Nlocal:             48 ave          48 max          48 min
Histogram: 1 0 0 0 0 0 0 0 0 0
Nghost:            390 ave         390 max         390 min
Histogram: 1 0 0 0 0 0 0 0 0 0
Neighs:           1304 ave        1304 max        1304 min
Histogram: 1 0 0 0 0 0 0 0 0 0
FullNghs:         2608 ave        2608 max        2608 min
Histogram: 1 0 0 0 0 0 0 0 0 0

Total # of neighbors = 2608
Ave neighs/atom = 54.333333
Neighbor list builds = 0
Dangerous builds = 0
set atom * x 0.0 y 0.0 z 0.0
Setting atom values ...
  48 settings made for x
  48 settings made for y
  48 settings made for z
change_box all     x final 0 8.3636544974664 y final 0 8.968096340511282 z final 0 46.60186917768427      xy final -8.3636544974664 xz final 0.0 yz final 0.0 units box
Changing box ...
  triclinic box = (0 0 0) to (8.3636545 8.9680963 46.601869) with tilt (-8.3636545 0 0)
  triclinic box = (0 0 0) to (8.3636545 8.9680963 46.601869) with tilt (-8.3636545 0 0)
  triclinic box = (0 0 0) to (8.3636545 8.9680963 46.601869) with tilt (-8.3636545 0 0)
  triclinic box = (0 0 0) to (8.3636545 8.9680963 46.601869) with tilt (-8.3636545 0 0)
  triclinic box = (0 0 0) to (8.3636545 8.9680963 46.601869) with tilt (-8.3636545 0 0)
  triclinic box = (0 0 0) to (8.3636545 8.9680963 46.601869) with tilt (-8.3636545 0 0)
echo none
run 0
Per MPI rank memory allocation (min/avg/max) = 8.724 | 8.724 | 8.724 Mbytes
    PotEng          Pxx           E_mol          E_coul    
-135.3341       1724.3691      0              0            
Loop time of 8.26e-07 on 1 procs for 0 steps with 48 atoms

242.1% CPU use with 1 MPI tasks x 1 OpenMP threads

MPI task timing breakdown:
Section |  min time  |  avg time  |  max time  |%varavg| %total
---------------------------------------------------------------
Pair    | 0          | 0          | 0          |   0.0 |  0.00
Neigh   | 0          | 0          | 0          |   0.0 |  0.00
Comm    | 0          | 0          | 0          |   0.0 |  0.00
Output  | 0          | 0          | 0          |   0.0 |  0.00
Modify  | 0          | 0          | 0          |   0.0 |  0.00
Other   |            | 8.26e-07   |            |       |100.00

Nlocal:             48 ave          48 max          48 min
Histogram: 1 0 0 0 0 0 0 0 0 0
Nghost:            390 ave         390 max         390 min
Histogram: 1 0 0 0 0 0 0 0 0 0
Neighs:           1304 ave        1304 max        1304 min
Histogram: 1 0 0 0 0 0 0 0 0 0
FullNghs:         2608 ave        2608 max        2608 min
Histogram: 1 0 0 0 0 0 0 0 0 0

Total # of neighbors = 2608
Ave neighs/atom = 54.333333
Neighbor list builds = 0
Dangerous builds = 0
set atom * x 0.0 y 0.0 z 0.0
Setting atom values ...
  48 settings made for x
  48 settings made for y
  48 settings made for z
change_box all     x final 0 8.3636544974664 y final 0 8.968096340511282 z final 0 46.60186917768427      xy final -8.3636544974664 xz final 0.0 yz final 0.0 units box
Changing box ...
  triclinic box = (0 0 0) to (8.3636545 8.9680963 46.601869) with tilt (-8.3636545 0 0)
  triclinic box = (0 0 0) to (8.3636545 8.9680963 46.601869) with tilt (-8.3636545 0 0)
  triclinic box = (0 0 0) to (8.3636545 8.9680963 46.601869) with tilt (-8.3636545 0 0)
  triclinic box = (0 0 0) to (8.3636545 8.9680963 46.601869) with tilt (-8.3636545 0 0)
  triclinic box = (0 0 0) to (8.3636545 8.9680963 46.601869) with tilt (-8.3636545 0 0)
  triclinic box = (0 0 0) to (8.3636545 8.9680963 46.601869) with tilt (-8.3636545 0 0)
echo none
run 0
Per MPI rank memory allocation (min/avg/max) = 8.724 | 8.724 | 8.724 Mbytes
    PotEng          Pxx           E_mol          E_coul    
-135.33866      1680.403       0              0            
Loop time of 8.69e-07 on 1 procs for 0 steps with 48 atoms

230.1% CPU use with 1 MPI tasks x 1 OpenMP threads

MPI task timing breakdown:
Section |  min time  |  avg time  |  max time  |%varavg| %total
---------------------------------------------------------------
Pair    | 0          | 0          | 0          |   0.0 |  0.00
Neigh   | 0          | 0          | 0          |   0.0 |  0.00
Comm    | 0          | 0          | 0          |   0.0 |  0.00
Output  | 0          | 0          | 0          |   0.0 |  0.00
Modify  | 0          | 0          | 0          |   0.0 |  0.00
Other   |            | 8.69e-07   |            |       |100.00

Nlocal:             48 ave          48 max          48 min
Histogram: 1 0 0 0 0 0 0 0 0 0
Nghost:            390 ave         390 max         390 min
Histogram: 1 0 0 0 0 0 0 0 0 0
Neighs:           1304 ave        1304 max        1304 min
Histogram: 1 0 0 0 0 0 0 0 0 0
FullNghs:         2608 ave        2608 max        2608 min
Histogram: 1 0 0 0 0 0 0 0 0 0

Total # of neighbors = 2608
Ave neighs/atom = 54.333333
Neighbor list builds = 0
Dangerous builds = 0
set atom * x 0.0 y 0.0 z 0.0
Setting atom values ...
  48 settings made for x
  48 settings made for y
  48 settings made for z
change_box all     x final 0 8.3636544974664 y final 0 8.968096340511282 z final 0 46.60186917768427      xy final -8.3636544974664 xz final 0.0 yz final 0.0 units box
Changing box ...
  triclinic box = (0 0 0) to (8.3636545 8.9680963 46.601869) with tilt (-8.3636545 0 0)
  triclinic box = (0 0 0) to (8.3636545 8.9680963 46.601869) with tilt (-8.3636545 0 0)
  triclinic box = (0 0 0) to (8.3636545 8.9680963 46.601869) with tilt (-8.3636545 0 0)
  triclinic box = (0 0 0) to (8.3636545 8.9680963 46.601869) with tilt (-8.3636545 0 0)
  triclinic box = (0 0 0) to (8.3636545 8.9680963 46.601869) with tilt (-8.3636545 0 0)
  triclinic box = (0 0 0) to (8.3636545 8.9680963 46.601869) with tilt (-8.3636545 0 0)
echo none
run 0
Per MPI rank memory allocation (min/avg/max) = 8.724 | 8.724 | 8.724 Mbytes
    PotEng          Pxx           E_mol          E_coul    
-135.34343      1684.5337      0              0            
Loop time of 9.78e-07 on 1 procs for 0 steps with 48 atoms

204.5% CPU use with 1 MPI tasks x 1 OpenMP threads

MPI task timing breakdown:
Section |  min time  |  avg time  |  max time  |%varavg| %total
---------------------------------------------------------------
Pair    | 0          | 0          | 0          |   0.0 |  0.00
Neigh   | 0          | 0          | 0          |   0.0 |  0.00
Comm    | 0          | 0          | 0          |   0.0 |  0.00
Output  | 0          | 0          | 0          |   0.0 |  0.00
Modify  | 0          | 0          | 0          |   0.0 |  0.00
Other   |            | 9.78e-07   |            |       |100.00

Nlocal:             48 ave          48 max          48 min
Histogram: 1 0 0 0 0 0 0 0 0 0
Nghost:            390 ave         390 max         390 min
Histogram: 1 0 0 0 0 0 0 0 0 0
Neighs:           1304 ave        1304 max        1304 min
Histogram: 1 0 0 0 0 0 0 0 0 0
FullNghs:         2608 ave        2608 max        2608 min
Histogram: 1 0 0 0 0 0 0 0 0 0

Total # of neighbors = 2608
Ave neighs/atom = 54.333333
Neighbor list builds = 0
Dangerous builds = 0
set atom * x 0.0 y 0.0 z 0.0
Setting atom values ...
  48 settings made for x
  48 settings made for y
  48 settings made for z
change_box all     x final 0 8.3636544974664 y final 0 8.968096340511282 z final 0 46.60186917768427      xy final -8.3636544974664 xz final 0.0 yz final 0.0 units box
Changing box ...
  triclinic box = (0 0 0) to (8.3636545 8.9680963 46.601869) with tilt (-8.3636545 0 0)
  triclinic box = (0 0 0) to (8.3636545 8.9680963 46.601869) with tilt (-8.3636545 0 0)
  triclinic box = (0 0 0) to (8.3636545 8.9680963 46.601869) with tilt (-8.3636545 0 0)
  triclinic box = (0 0 0) to (8.3636545 8.9680963 46.601869) with tilt (-8.3636545 0 0)
  triclinic box = (0 0 0) to (8.3636545 8.9680963 46.601869) with tilt (-8.3636545 0 0)
  triclinic box = (0 0 0) to (8.3636545 8.9680963 46.601869) with tilt (-8.3636545 0 0)
echo none
run 0
Per MPI rank memory allocation (min/avg/max) = 8.724 | 8.724 | 8.724 Mbytes
    PotEng          Pxx           E_mol          E_coul    
-135.35119      1715.3232      0              0            
Loop time of 1.337e-06 on 1 procs for 0 steps with 48 atoms

149.6% CPU use with 1 MPI tasks x 1 OpenMP threads

MPI task timing breakdown:
Section |  min time  |  avg time  |  max time  |%varavg| %total
---------------------------------------------------------------
Pair    | 0          | 0          | 0          |   0.0 |  0.00
Neigh   | 0          | 0          | 0          |   0.0 |  0.00
Comm    | 0          | 0          | 0          |   0.0 |  0.00
Output  | 0          | 0          | 0          |   0.0 |  0.00
Modify  | 0          | 0          | 0          |   0.0 |  0.00
Other   |            | 1.337e-06  |            |       |100.00

Nlocal:             48 ave          48 max          48 min
Histogram: 1 0 0 0 0 0 0 0 0 0
Nghost:            390 ave         390 max         390 min
Histogram: 1 0 0 0 0 0 0 0 0 0
Neighs:           1304 ave        1304 max        1304 min
Histogram: 1 0 0 0 0 0 0 0 0 0
FullNghs:         2608 ave        2608 max        2608 min
Histogram: 1 0 0 0 0 0 0 0 0 0

Total # of neighbors = 2608
Ave neighs/atom = 54.333333
Neighbor list builds = 0
Dangerous builds = 0
set atom * x 0.0 y 0.0 z 0.0
Setting atom values ...
  48 settings made for x
  48 settings made for y
  48 settings made for z
change_box all     x final 0 8.3636544974664 y final 0 8.968096340511282 z final 0 46.60186917768427      xy final -8.3636544974664 xz final 0.0 yz final 0.0 units box
Changing box ...
  triclinic box = (0 0 0) to (8.3636545 8.9680963 46.601869) with tilt (-8.3636545 0 0)
  triclinic box = (0 0 0) to (8.3636545 8.9680963 46.601869) with tilt (-8.3636545 0 0)
  triclinic box = (0 0 0) to (8.3636545 8.9680963 46.601869) with tilt (-8.3636545 0 0)
  triclinic box = (0 0 0) to (8.3636545 8.9680963 46.601869) with tilt (-8.3636545 0 0)
  triclinic box = (0 0 0) to (8.3636545 8.9680963 46.601869) with tilt (-8.3636545 0 0)
  triclinic box = (0 0 0) to (8.3636545 8.9680963 46.601869) with tilt (-8.3636545 0 0)
echo none
run 0
Per MPI rank memory allocation (min/avg/max) = 8.724 | 8.724 | 8.724 Mbytes
    PotEng          Pxx           E_mol          E_coul    
-135.36568      1770.8256      0              0            
Loop time of 1.667e-06 on 1 procs for 0 steps with 48 atoms

180.0% CPU use with 1 MPI tasks x 1 OpenMP threads

MPI task timing breakdown:
Section |  min time  |  avg time  |  max time  |%varavg| %total
---------------------------------------------------------------
Pair    | 0          | 0          | 0          |   0.0 |  0.00
Neigh   | 0          | 0          | 0          |   0.0 |  0.00
Comm    | 0          | 0          | 0          |   0.0 |  0.00
Output  | 0          | 0          | 0          |   0.0 |  0.00
Modify  | 0          | 0          | 0          |   0.0 |  0.00
Other   |            | 1.667e-06  |            |       |100.00

Nlocal:             48 ave          48 max          48 min
Histogram: 1 0 0 0 0 0 0 0 0 0
Nghost:            390 ave         390 max         390 min
Histogram: 1 0 0 0 0 0 0 0 0 0
Neighs:           1304 ave        1304 max        1304 min
Histogram: 1 0 0 0 0 0 0 0 0 0
FullNghs:         2608 ave        2608 max        2608 min
Histogram: 1 0 0 0 0 0 0 0 0 0

Total # of neighbors = 2608
Ave neighs/atom = 54.333333
Neighbor list builds = 0
Dangerous builds = 0
set atom * x 0.0 y 0.0 z 0.0
Setting atom values ...
  48 settings made for x
  48 settings made for y
  48 settings made for z
change_box all     x final 0 8.3636544974664 y final 0 8.968096340511282 z final 0 46.60186917768427      xy final -8.3636544974664 xz final 0.0 yz final 0.0 units box
Changing box ...
  triclinic box = (0 0 0) to (8.3636545 8.9680963 46.601869) with tilt (-8.3636545 0 0)
  triclinic box = (0 0 0) to (8.3636545 8.9680963 46.601869) with tilt (-8.3636545 0 0)
  triclinic box = (0 0 0) to (8.3636545 8.9680963 46.601869) with tilt (-8.3636545 0 0)
[...]

Nlocal:             48 ave          48 max          48 min
Histogram: 1 0 0 0 0 0 0 0 0 0
Nghost:            387 ave         387 max         387 min
Histogram: 1 0 0 0 0 0 0 0 0 0
Neighs:           1280 ave        1280 max        1280 min
Histogram: 1 0 0 0 0 0 0 0 0 0
FullNghs:         2560 ave        2560 max        2560 min
Histogram: 1 0 0 0 0 0 0 0 0 0

Total # of neighbors = 2560
Ave neighs/atom = 53.333333
Neighbor list builds = 0
Dangerous builds = 0
set atom * x 0.0 y 0.0 z 0.0
Setting atom values ...
  48 settings made for x
  48 settings made for y
  48 settings made for z
change_box all     x final 0 8.3636544974664 y final 0 8.968096340511282 z final 0 46.60186917768427      xy final -8.3636544974664 xz final 0.0 yz final 0.0 units box
Changing box ...
  triclinic box = (0 0 0) to (8.3636545 8.9680963 46.601869) with tilt (-8.3636545 0 0)
  triclinic box = (0 0 0) to (8.3636545 8.9680963 46.601869) with tilt (-8.3636545 0 0)
  triclinic box = (0 0 0) to (8.3636545 8.9680963 46.601869) with tilt (-8.3636545 0 0)
  triclinic box = (0 0 0) to (8.3636545 8.9680963 46.601869) with tilt (-8.3636545 0 0)
  triclinic box = (0 0 0) to (8.3636545 8.9680963 46.601869) with tilt (-8.3636545 0 0)
  triclinic box = (0 0 0) to (8.3636545 8.9680963 46.601869) with tilt (-8.3636545 0 0)
echo none
run 0
Per MPI rank memory allocation (min/avg/max) = 8.724 | 8.724 | 8.724 Mbytes
    PotEng          Pxx           E_mol          E_coul    
-136.15356      1631.8139      0              0            
Loop time of 8.81e-07 on 1 procs for 0 steps with 48 atoms

227.0% CPU use with 1 MPI tasks x 1 OpenMP threads

MPI task timing breakdown:
Section |  min time  |  avg time  |  max time  |%varavg| %total
---------------------------------------------------------------
Pair    | 0          | 0          | 0          |   0.0 |  0.00
Neigh   | 0          | 0          | 0          |   0.0 |  0.00
Comm    | 0          | 0          | 0          |   0.0 |  0.00
Output  | 0          | 0          | 0          |   0.0 |  0.00
Modify  | 0          | 0          | 0          |   0.0 |  0.00
Other   |            | 8.81e-07   |            |       |100.00

Nlocal:             48 ave          48 max          48 min
Histogram: 1 0 0 0 0 0 0 0 0 0
Nghost:            387 ave         387 max         387 min
Histogram: 1 0 0 0 0 0 0 0 0 0
Neighs:           1280 ave        1280 max        1280 min
Histogram: 1 0 0 0 0 0 0 0 0 0
FullNghs:         2560 ave        2560 max        2560 min
Histogram: 1 0 0 0 0 0 0 0 0 0

Total # of neighbors = 2560
Ave neighs/atom = 53.333333
Neighbor list builds = 0
Dangerous builds = 0
set atom * x 0.0 y 0.0 z 0.0
Setting atom values ...
  48 settings made for x
  48 settings made for y
  48 settings made for z
change_box all     x final 0 8.3636544974664 y final 0 8.968096340511282 z final 0 46.60186917768427      xy final -8.3636544974664 xz final 0.0 yz final 0.0 units box
Changing box ...
  triclinic box = (0 0 0) to (8.3636545 8.9680963 46.601869) with tilt (-8.3636545 0 0)
  triclinic box = (0 0 0) to (8.3636545 8.9680963 46.601869) with tilt (-8.3636545 0 0)
  triclinic box = (0 0 0) to (8.3636545 8.9680963 46.601869) with tilt (-8.3636545 0 0)
  triclinic box = (0 0 0) to (8.3636545 8.9680963 46.601869) with tilt (-8.3636545 0 0)
  triclinic box = (0 0 0) to (8.3636545 8.9680963 46.601869) with tilt (-8.3636545 0 0)
  triclinic box = (0 0 0) to (8.3636545 8.9680963 46.601869) with tilt (-8.3636545 0 0)
echo none
run 0
Per MPI rank memory allocation (min/avg/max) = 8.724 | 8.724 | 8.724 Mbytes
    PotEng          Pxx           E_mol          E_coul    
-136.15362      1634.0744      0              0            
Loop time of 1.377e-06 on 1 procs for 0 steps with 48 atoms

435.7% CPU use with 1 MPI tasks x 1 OpenMP threads

MPI task timing breakdown:
Section |  min time  |  avg time  |  max time  |%varavg| %total
---------------------------------------------------------------
Pair    | 0          | 0          | 0          |   0.0 |  0.00
Neigh   | 0          | 0          | 0          |   0.0 |  0.00
Comm    | 0          | 0          | 0          |   0.0 |  0.00
Output  | 0          | 0          | 0          |   0.0 |  0.00
Modify  | 0          | 0          | 0          |   0.0 |  0.00
Other   |            | 1.377e-06  |            |       |100.00

Nlocal:             48 ave          48 max          48 min
Histogram: 1 0 0 0 0 0 0 0 0 0
Nghost:            387 ave         387 max         387 min
Histogram: 1 0 0 0 0 0 0 0 0 0
Neighs:           1280 ave        1280 max        1280 min
Histogram: 1 0 0 0 0 0 0 0 0 0
FullNghs:         2560 ave        2560 max        2560 min
Histogram: 1 0 0 0 0 0 0 0 0 0

Total # of neighbors = 2560
Ave neighs/atom = 53.333333
Neighbor list builds = 0
Dangerous builds = 0
set atom * x 0.0 y 0.0 z 0.0
Setting atom values ...
  48 settings made for x
  48 settings made for y
  48 settings made for z
change_box all     x final 0 8.3636544974664 y final 0 8.968096340511282 z final 0 46.60186917768427      xy final -8.3636544974664 xz final 0.0 yz final 0.0 units box
Changing box ...
  triclinic box = (0 0 0) to (8.3636545 8.9680963 46.601869) with tilt (-8.3636545 0 0)
  triclinic box = (0 0 0) to (8.3636545 8.9680963 46.601869) with tilt (-8.3636545 0 0)
  triclinic box = (0 0 0) to (8.3636545 8.9680963 46.601869) with tilt (-8.3636545 0 0)
  triclinic box = (0 0 0) to (8.3636545 8.9680963 46.601869) with tilt (-8.3636545 0 0)
  triclinic box = (0 0 0) to (8.3636545 8.9680963 46.601869) with tilt (-8.3636545 0 0)
  triclinic box = (0 0 0) to (8.3636545 8.9680963 46.601869) with tilt (-8.3636545 0 0)
echo none
run 0
Per MPI rank memory allocation (min/avg/max) = 8.724 | 8.724 | 8.724 Mbytes
    PotEng          Pxx           E_mol          E_coul    
-136.1537       1638.8494      0              0            
Loop time of 1.182e-06 on 1 procs for 0 steps with 48 atoms

169.2% CPU use with 1 MPI tasks x 1 OpenMP threads

MPI task timing breakdown:
Section |  min time  |  avg time  |  max time  |%varavg| %total
---------------------------------------------------------------
Pair    | 0          | 0          | 0          |   0.0 |  0.00
Neigh   | 0          | 0          | 0          |   0.0 |  0.00
Comm    | 0          | 0          | 0          |   0.0 |  0.00
Output  | 0          | 0          | 0          |   0.0 |  0.00
Modify  | 0          | 0          | 0          |   0.0 |  0.00
Other   |            | 1.182e-06  |            |       |100.00

Nlocal:             48 ave          48 max          48 min
Histogram: 1 0 0 0 0 0 0 0 0 0
Nghost:            387 ave         387 max         387 min
Histogram: 1 0 0 0 0 0 0 0 0 0
Neighs:           1280 ave        1280 max        1280 min
Histogram: 1 0 0 0 0 0 0 0 0 0
FullNghs:         2560 ave        2560 max        2560 min
Histogram: 1 0 0 0 0 0 0 0 0 0

Total # of neighbors = 2560
Ave neighs/atom = 53.333333
Neighbor list builds = 0
Dangerous builds = 0
set atom * x 0.0 y 0.0 z 0.0
Setting atom values ...
  48 settings made for x
  48 settings made for y
  48 settings made for z
change_box all     x final 0 8.3636544974664 y final 0 8.968096340511282 z final 0 46.60186917768427      xy final -8.3636544974664 xz final 0.0 yz final 0.0 units box
Changing box ...
  triclinic box = (0 0 0) to (8.3636545 8.9680963 46.601869) with tilt (-8.3636545 0 0)
  triclinic box = (0 0 0) to (8.3636545 8.9680963 46.601869) with tilt (-8.3636545 0 0)
  triclinic box = (0 0 0) to (8.3636545 8.9680963 46.601869) with tilt (-8.3636545 0 0)
  triclinic box = (0 0 0) to (8.3636545 8.9680963 46.601869) with tilt (-8.3636545 0 0)
  triclinic box = (0 0 0) to (8.3636545 8.9680963 46.601869) with tilt (-8.3636545 0 0)
  triclinic box = (0 0 0) to (8.3636545 8.9680963 46.601869) with tilt (-8.3636545 0 0)
echo none
run 0
Per MPI rank memory allocation (min/avg/max) = 8.724 | 8.724 | 8.724 Mbytes
    PotEng          Pxx           E_mol          E_coul    
-136.15389      1641.1707      0              0            
Loop time of 1.352e-06 on 1 procs for 0 steps with 48 atoms

221.9% CPU use with 1 MPI tasks x 1 OpenMP threads

MPI task timing breakdown:
Section |  min time  |  avg time  |  max time  |%varavg| %total
---------------------------------------------------------------
Pair    | 0          | 0          | 0          |   0.0 |  0.00
Neigh   | 0          | 0          | 0          |   0.0 |  0.00
Comm    | 0          | 0          | 0          |   0.0 |  0.00
Output  | 0          | 0          | 0          |   0.0 |  0.00
Modify  | 0          | 0          | 0          |   0.0 |  0.00
Other   |            | 1.352e-06  |            |       |100.00

Nlocal:             48 ave          48 max          48 min
Histogram: 1 0 0 0 0 0 0 0 0 0
Nghost:            387 ave         387 max         387 min
Histogram: 1 0 0 0 0 0 0 0 0 0
Neighs:           1280 ave        1280 max        1280 min
Histogram: 1 0 0 0 0 0 0 0 0 0
FullNghs:         2560 ave        2560 max        2560 min
Histogram: 1 0 0 0 0 0 0 0 0 0

Total # of neighbors = 2560
Ave neighs/atom = 53.333333
Neighbor list builds = 0
Dangerous builds = 0
set atom * x 0.0 y 0.0 z 0.0
Setting atom values ...
  48 settings made for x
  48 settings made for y
  48 settings made for z
change_box all     x final 0 8.3636544974664 y final 0 8.968096340511282 z final 0 46.60186917768427      xy final -8.3636544974664 xz final 0.0 yz final 0.0 units box
Changing box ...
  triclinic box = (0 0 0) to (8.3636545 8.9680963 46.601869) with tilt (-8.3636545 0 0)
  triclinic box = (0 0 0) to (8.3636545 8.9680963 46.601869) with tilt (-8.3636545 0 0)
  triclinic box = (0 0 0) to (8.3636545 8.9680963 46.601869) with tilt (-8.3636545 0 0)
  triclinic box = (0 0 0) to (8.3636545 8.9680963 46.601869) with tilt (-8.3636545 0 0)
  triclinic box = (0 0 0) to (8.3636545 8.9680963 46.601869) with tilt (-8.3636545 0 0)
  triclinic box = (0 0 0) to (8.3636545 8.9680963 46.601869) with tilt (-8.3636545 0 0)
echo none
run 0
Per MPI rank memory allocation (min/avg/max) = 8.724 | 8.724 | 8.724 Mbytes
    PotEng          Pxx           E_mol          E_coul    
-136.15431      1629.5784      0              0            
Loop time of 1.364e-06 on 1 procs for 0 steps with 48 atoms

219.9% CPU use with 1 MPI tasks x 1 OpenMP threads

MPI task timing breakdown:
Section |  min time  |  avg time  |  max time  |%varavg| %total
---------------------------------------------------------------
Pair    | 0          | 0          | 0          |   0.0 |  0.00
Neigh   | 0          | 0          | 0          |   0.0 |  0.00
Comm    | 0          | 0          | 0          |   0.0 |  0.00
Output  | 0          | 0          | 0          |   0.0 |  0.00
Modify  | 0          | 0          | 0          |   0.0 |  0.00
Other   |            | 1.364e-06  |            |       |100.00

Nlocal:             48 ave          48 max          48 min
Histogram: 1 0 0 0 0 0 0 0 0 0
Nghost:            387 ave         387 max         387 min
Histogram: 1 0 0 0 0 0 0 0 0 0
Neighs:           1280 ave        1280 max        1280 min
Histogram: 1 0 0 0 0 0 0 0 0 0
FullNghs:         2560 ave        2560 max        2560 min
Histogram: 1 0 0 0 0 0 0 0 0 0

Total # of neighbors = 2560
Ave neighs/atom = 53.333333
Neighbor list builds = 0
Dangerous builds = 0
set atom * x 0.0 y 0.0 z 0.0
Setting atom values ...
  48 settings made for x
  48 settings made for y
  48 settings made for z
change_box all     x final 0 8.3636544974664 y final 0 8.968096340511282 z final 0 46.60186917768427      xy final -8.3636544974664 xz final 0.0 yz final 0.0 units box
Changing box ...
  triclinic box = (0 0 0) to (8.3636545 8.9680963 46.601869) with tilt (-8.3636545 0 0)
  triclinic box = (0 0 0) to (8.3636545 8.9680963 46.601869) with tilt (-8.3636545 0 0)
  triclinic box = (0 0 0) to (8.3636545 8.9680963 46.601869) with tilt (-8.3636545 0 0)
  triclinic box = (0 0 0) to (8.3636545 8.9680963 46.601869) with tilt (-8.3636545 0 0)
  triclinic box = (0 0 0) to (8.3636545 8.9680963 46.601869) with tilt (-8.3636545 0 0)
  triclinic box = (0 0 0) to (8.3636545 8.9680963 46.601869) with tilt (-8.3636545 0 0)
echo none
run 0
Per MPI rank memory allocation (min/avg/max) = 8.724 | 8.724 | 8.724 Mbytes
    PotEng          Pxx           E_mol          E_coul    
-136.15512      1581.9164      0              0            
Loop time of 1.506e-06 on 1 procs for 0 steps with 48 atoms

199.2% CPU use with 1 MPI tasks x 1 OpenMP threads

MPI task timing breakdown:
Section |  min time  |  avg time  |  max time  |%varavg| %total
---------------------------------------------------------------
Pair    | 0          | 0          | 0          |   0.0 |  0.00
Neigh   | 0          | 0          | 0          |   0.0 |  0.00
Comm    | 0          | 0          | 0          |   0.0 |  0.00
Output  | 0          | 0          | 0          |   0.0 |  0.00
Modify  | 0          | 0          | 0          |   0.0 |  0.00
Other   |            | 1.506e-06  |            |       |100.00

Nlocal:             48 ave          48 max          48 min
Histogram: 1 0 0 0 0 0 0 0 0 0
Nghost:            387 ave         387 max         387 min
Histogram: 1 0 0 0 0 0 0 0 0 0
Neighs:           1280 ave        1280 max        1280 min
Histogram: 1 0 0 0 0 0 0 0 0 0
FullNghs:         2560 ave        2560 max        2560 min
Histogram: 1 0 0 0 0 0 0 0 0 0

Total # of neighbors = 2560
Ave neighs/atom = 53.333333
Neighbor list builds = 0
Dangerous builds = 0
set atom * x 0.0 y 0.0 z 0.0
Setting atom values ...
  48 settings made for x
  48 settings made for y
  48 settings made for z
change_box all     x final 0 8.3636544974664 y final 0 8.968096340511282 z final 0 46.60186917768427      xy final -8.3636544974664 xz final 0.0 yz final 0.0 units box
Changing box ...
  triclinic box = (0 0 0) to (8.3636545 8.9680963 46.601869) with tilt (-8.3636545 0 0)
  triclinic box = (0 0 0) to (8.3636545 8.9680963 46.601869) with tilt (-8.3636545 0 0)
  triclinic box = (0 0 0) to (8.3636545 8.9680963 46.601869) with tilt (-8.3636545 0 0)
  triclinic box = (0 0 0) to (8.3636545 8.9680963 46.601869) with tilt (-8.3636545 0 0)
  triclinic box = (0 0 0) to (8.3636545 8.9680963 46.601869) with tilt (-8.3636545 0 0)
  triclinic box = (0 0 0) to (8.3636545 8.9680963 46.601869) with tilt (-8.3636545 0 0)
echo none
run 0
Per MPI rank memory allocation (min/avg/max) = 8.724 | 8.724 | 8.724 Mbytes
    PotEng          Pxx           E_mol          E_coul    
-136.15622      1483.8341      0              0            
Loop time of 1.849e-06 on 1 procs for 0 steps with 48 atoms

162.2% CPU use with 1 MPI tasks x 1 OpenMP threads

MPI task timing breakdown:
Section |  min time  |  avg time  |  max time  |%varavg| %total
---------------------------------------------------------------
Pair    | 0          | 0          | 0          |   0.0 |  0.00
Neigh   | 0          | 0          | 0          |   0.0 |  0.00
Comm    | 0          | 0          | 0          |   0.0 |  0.00
Output  | 0          | 0          | 0          |   0.0 |  0.00
Modify  | 0          | 0          | 0          |   0.0 |  0.00
Other   |            | 1.849e-06  |            |       |100.00

Nlocal:             48 ave          48 max          48 min
Histogram: 1 0 0 0 0 0 0 0 0 0
Nghost:            387 ave         387 max         387 min
Histogram: 1 0 0 0 0 0 0 0 0 0
Neighs:           1280 ave        1280 max        1280 min
Histogram: 1 0 0 0 0 0 0 0 0 0
FullNghs:         2560 ave        2560 max        2560 min
Histogram: 1 0 0 0 0 0 0 0 0 0

Total # of neighbors = 2560
Ave neighs/atom = 53.333333
Neighbor list builds = 0
Dangerous builds = 0
set atom * x 0.0 y 0.0 z 0.0
Setting atom values ...
  48 settings made for x
  48 settings made for y
  48 settings made for z
change_box all     x final 0 8.3636544974664 y final 0 8.968096340511282 z final 0 46.60186917768427      xy final -8.3636544974664 xz final 0.0 yz final 0.0 units box
Changing box ...
  triclinic box = (0 0 0) to (8.3636545 8.9680963 46.601869) with tilt (-8.3636545 0 0)
  triclinic box = (0 0 0) to (8.3636545 8.9680963 46.601869) with tilt (-8.3636545 0 0)
  triclinic box = (0 0 0) to (8.3636545 8.9680963 46.601869) with tilt (-8.3636545 0 0)
  triclinic box = (0 0 0) to (8.3636545 8.9680963 46.601869) with tilt (-8.3636545 0 0)
  triclinic box = (0 0 0) to (8.3636545 8.9680963 46.601869) with tilt (-8.3636545 0 0)
  triclinic box = (0 0 0) to (8.3636545 8.9680963 46.601869) with tilt (-8.3636545 0 0)
echo none
run 0
Per MPI rank memory allocation (min/avg/max) = 8.724 | 8.724 | 8.724 Mbytes
    PotEng          Pxx           E_mol          E_coul    
-136.157        1381.5898      0              0            
Loop time of 1.538e-06 on 1 procs for 0 steps with 48 atoms

130.0% CPU use with 1 MPI tasks x 1 OpenMP threads

MPI task timing breakdown:
Section |  min time  |  avg time  |  max time  |%varavg| %total
---------------------------------------------------------------
Pair    | 0          | 0          | 0          |   0.0 |  0.00
Neigh   | 0          | 0          | 0          |   0.0 |  0.00
Comm    | 0          | 0          | 0          |   0.0 |  0.00
Output  | 0          | 0          | 0          |   0.0 |  0.00
Modify  | 0          | 0          | 0          |   0.0 |  0.00
Other   |            | 1.538e-06  |            |       |100.00

Nlocal:             48 ave          48 max          48 min
Histogram: 1 0 0 0 0 0 0 0 0 0
Nghost:            387 ave         387 max         387 min
Histogram: 1 0 0 0 0 0 0 0 0 0
Neighs:           1280 ave        1280 max        1280 min
Histogram: 1 0 0 0 0 0 0 0 0 0
FullNghs:         2560 ave        2560 max        2560 min
Histogram: 1 0 0 0 0 0 0 0 0 0

Total # of neighbors = 2560
Ave neighs/atom = 53.333333
Neighbor list builds = 0
Dangerous builds = 0
set atom * x 0.0 y 0.0 z 0.0
Setting atom values ...
  48 settings made for x
  48 settings made for y
  48 settings made for z
change_box all     x final 0 8.3636544974664 y final 0 8.968096340511282 z final 0 46.60186917768427      xy final -8.3636544974664 xz final 0.0 yz final 0.0 units box
Changing box ...
  triclinic box = (0 0 0) to (8.3636545 8.9680963 46.601869) with tilt (-8.3636545 0 0)
  triclinic box = (0 0 0) to (8.3636545 8.9680963 46.601869) with tilt (-8.3636545 0 0)
  triclinic box = (0 0 0) to (8.3636545 8.9680963 46.601869) with tilt (-8.3636545 0 0)
  triclinic box = (0 0 0) to (8.3636545 8.9680963 46.601869) with tilt (-8.3636545 0 0)
  triclinic box = (0 0 0) to (8.3636545 8.9680963 46.601869) with tilt (-8.3636545 0 0)
  triclinic box = (0 0 0) to (8.3636545 8.9680963 46.601869) with tilt (-8.3636545 0 0)
echo none
run 0
Per MPI rank memory allocation (min/avg/max) = 8.724 | 8.724 | 8.724 Mbytes
    PotEng          Pxx           E_mol          E_coul    
-136.15721      1343.9542      0              0            
Loop time of 1.517e-06 on 1 procs for 0 steps with 48 atoms

197.8% CPU use with 1 MPI tasks x 1 OpenMP threads

MPI task timing breakdown:
Section |  min time  |  avg time  |  max time  |%varavg| %total
---------------------------------------------------------------
Pair    | 0          | 0          | 0          |   0.0 |  0.00
Neigh   | 0          | 0          | 0          |   0.0 |  0.00
Comm    | 0          | 0          | 0          |   0.0 |  0.00
Output  | 0          | 0          | 0          |   0.0 |  0.00
Modify  | 0          | 0          | 0          |   0.0 |  0.00
Other   |            | 1.517e-06  |            |       |100.00

Nlocal:             48 ave          48 max          48 min
Histogram: 1 0 0 0 0 0 0 0 0 0
Nghost:            385 ave         385 max         385 min
Histogram: 1 0 0 0 0 0 0 0 0 0
Neighs:           1280 ave        1280 max        1280 min
Histogram: 1 0 0 0 0 0 0 0 0 0
FullNghs:         2560 ave        2560 max        2560 min
Histogram: 1 0 0 0 0 0 0 0 0 0

Total # of neighbors = 2560
Ave neighs/atom = 53.333333
Neighbor list builds = 0
Dangerous builds = 0
Total wall time: 0:00:00
