LAMMPS (29 Aug 2024)
OMP_NUM_THREADS environment is not set. Defaulting to 1 thread. (src/comm.cpp:98)
  using 1 OpenMP thread(s) per MPI task
units metal
atom_style atomic
atom_modify map array sort 0 0
boundary p p p
box tilt large

The 'box' command has been removed and will be ignored

region cell prism    0 8.768095571747754 0 6.30406998548646 0 54.06424368497267     2.389580572880023 0.0 0.0     units box
create_box 1 cell
Created triclinic box = (0 0 0) to (8.7680956 6.30407 54.064244) with tilt (2.3895806 0 0)
  1 by 1 by 1 MPI processor grid
echo none
Created 48 atoms
  using lattice units in triclinic box = (0 0 0) to (8.7680956 6.30407 54.064244) with tilt (2.3895806 0 0)
  create_atoms CPU = 0.000 seconds
Setting atom values ...
  1 settings made for type
Setting atom values ...
  1 settings made for type
Setting atom values ...
  1 settings made for type
Setting atom values ...
  1 settings made for type
Setting atom values ...
  1 settings made for type
Setting atom values ...
  1 settings made for type
Setting atom values ...
  1 settings made for type
Setting atom values ...
  1 settings made for type
Setting atom values ...
  1 settings made for type
Setting atom values ...
  1 settings made for type
Setting atom values ...
  1 settings made for type
Setting atom values ...
  1 settings made for type
Setting atom values ...
  1 settings made for type
Setting atom values ...
  1 settings made for type
Setting atom values ...
  1 settings made for type
Setting atom values ...
  1 settings made for type
Setting atom values ...
  1 settings made for type
Setting atom values ...
  1 settings made for type
Setting atom values ...
  1 settings made for type
Setting atom values ...
  1 settings made for type
Setting atom values ...
  1 settings made for type
Setting atom values ...
  1 settings made for type
Setting atom values ...
  1 settings made for type
Setting atom values ...
  1 settings made for type
Setting atom values ...
  1 settings made for type
Setting atom values ...
  1 settings made for type
Setting atom values ...
  1 settings made for type
Setting atom values ...
  1 settings made for type
Setting atom values ...
  1 settings made for type
Setting atom values ...
  1 settings made for type
Setting atom values ...
  1 settings made for type
Setting atom values ...
  1 settings made for type
Setting atom values ...
  1 settings made for type
Setting atom values ...
  1 settings made for type
Setting atom values ...
  1 settings made for type
Setting atom values ...
  1 settings made for type
Setting atom values ...
  1 settings made for type
Setting atom values ...
  1 settings made for type
Setting atom values ...
  1 settings made for type
Setting atom values ...
  1 settings made for type
Setting atom values ...
  1 settings made for type
Setting atom values ...
  1 settings made for type
Setting atom values ...
  1 settings made for type
Setting atom values ...
  1 settings made for type
Setting atom values ...
  1 settings made for type
Setting atom values ...
  1 settings made for type
Setting atom values ...
  1 settings made for type
Setting atom values ...
  1 settings made for type
pair_style meam
pair_coeff * * <HOME>/projects/beta-sn-elasticity/surface_gb/meam_potentials/library.Sn.Etesami2018.meam Sn <HOME>/projects/beta-sn-elasticity/surface_gb/meam_potentials/Sn.Etesami2018.meam Sn
compute pe_peratom all pe/atom
mass 1 118.709999969462515423401782754809
variable pxx equal pxx
variable pyy equal pyy
variable pzz equal pzz
variable pxy equal pxy
variable pxz equal pxz
variable pyz equal pyz
thermo_style custom pe pxx emol ecoul
variable fx atom fx
variable fy atom fy
variable fz atom fz
variable pe equal pe
neigh_modify delay 0 every 1 check yes
echo none
run 0
WARNING: No fixes with time integration, atoms won't move (src/verlet.cpp:60)
Neighbor list info ...
  update: every = 1 steps, delay = 0 steps, check = yes
  max neighbors/atom: 2000, page size: 100000
  master list distance cutoff = 7.5
  ghost atom cutoff = 7.5
  binsize = 3.75, bins = 3 2 15
  2 neighbor lists, perpetual/occasional/extra = 2 0 0
  (1) pair meam, perpetual
      attributes: full, newton on
      pair build: full/bin/atomonly
      stencil: full/bin/3d
      bin: standard
  (2) pair meam, perpetual, half/full from (1)
      attributes: half, newton on
      pair build: halffull/newton/tri
      stencil: none
      bin: none
Per MPI rank memory allocation (min/avg/max) = 8.592 | 8.592 | 8.592 Mbytes
    PotEng          Pxx           E_mol          E_coul    
-137.15497      9096.5876      0              0            
Loop time of 1.56e-06 on 1 procs for 0 steps with 48 atoms

128.2% CPU use with 1 MPI tasks x 1 OpenMP threads

MPI task timing breakdown:
Section |  min time  |  avg time  |  max time  |%varavg| %total
---------------------------------------------------------------
Pair    | 0          | 0          | 0          |   0.0 |  0.00
Neigh   | 0          | 0          | 0          |   0.0 |  0.00
Comm    | 0          | 0          | 0          |   0.0 |  0.00
Output  | 0          | 0          | 0          |   0.0 |  0.00
Modify  | 0          | 0          | 0          |   0.0 |  0.00
Other   |            | 1.56e-06   |            |       |100.00

Nlocal:             48 ave          48 max          48 min
Histogram: 1 0 0 0 0 0 0 0 0 0
Nghost:            415 ave         415 max         415 min
Histogram: 1 0 0 0 0 0 0 0 0 0
Neighs:           1356 ave        1356 max        1356 min
Histogram: 1 0 0 0 0 0 0 0 0 0
FullNghs:         2712 ave        2712 max        2712 min
Histogram: 1 0 0 0 0 0 0 0 0 0

Total # of neighbors = 2712
Ave neighs/atom = 56.5
Neighbor list builds = 0
Dangerous builds = 0
set atom * x 0.0 y 0.0 z 0.0
Setting atom values ...
  48 settings made for x
  48 settings made for y
  48 settings made for z
change_box all     x final 0 8.768095571747754 y final 0 6.30406998548646 z final 0 54.06424368497267      xy final 2.389580572880023 xz final 0.0 yz final 0.0 units box
Changing box ...
  triclinic box = (0 0 0) to (8.7680956 6.30407 54.064244) with tilt (2.3895806 0 0)
  triclinic box = (0 0 0) to (8.7680956 6.30407 54.064244) with tilt (2.3895806 0 0)
  triclinic box = (0 0 0) to (8.7680956 6.30407 54.064244) with tilt (2.3895806 0 0)
  triclinic box = (0 0 0) to (8.7680956 6.30407 54.064244) with tilt (2.3895806 0 0)
  triclinic box = (0 0 0) to (8.7680956 6.30407 54.064244) with tilt (2.3895806 0 0)
  triclinic box = (0 0 0) to (8.7680956 6.30407 54.064244) with tilt (2.3895806 0 0)
echo none
run 0
WARNING: No fixes with time integration, atoms won't move (src/verlet.cpp:60)
Per MPI rank memory allocation (min/avg/max) = 8.717 | 8.717 | 8.717 Mbytes
    PotEng          Pxx           E_mol          E_coul    
-137.56186      7123.4745      0              0            
Loop time of 1.13e-06 on 1 procs for 0 steps with 48 atoms

265.5% CPU use with 1 MPI tasks x 1 OpenMP threads

MPI task timing breakdown:
Section |  min time  |  avg time  |  max time  |%varavg| %total
---------------------------------------------------------------
Pair    | 0          | 0          | 0          |   0.0 |  0.00
Neigh   | 0          | 0          | 0          |   0.0 |  0.00
Comm    | 0          | 0          | 0          |   0.0 |  0.00
Output  | 0          | 0          | 0          |   0.0 |  0.00
Modify  | 0          | 0          | 0          |   0.0 |  0.00
Other   |            | 1.13e-06   |            |       |100.00

Nlocal:             48 ave          48 max          48 min
Histogram: 1 0 0 0 0 0 0 0 0 0
Nghost:            415 ave         415 max         415 min
Histogram: 1 0 0 0 0 0 0 0 0 0
Neighs:           1356 ave        1356 max        1356 min
Histogram: 1 0 0 0 0 0 0 0 0 0
FullNghs:         2712 ave        2712 max        2712 min
Histogram: 1 0 0 0 0 0 0 0 0 0

Total # of neighbors = 2712
Ave neighs/atom = 56.5
Neighbor list builds = 0
Dangerous builds = 0
set atom * x 0.0 y 0.0 z 0.0
Setting atom values ...
  48 settings made for x
  48 settings made for y
  48 settings made for z
change_box all     x final 0 8.768095571747754 y final 0 6.30406998548646 z final 0 54.06424368497267      xy final 2.389580572880023 xz final 0.0 yz final 0.0 units box
Changing box ...
  triclinic box = (0 0 0) to (8.7680956 6.30407 54.064244) with tilt (2.3895806 0 0)
  triclinic box = (0 0 0) to (8.7680956 6.30407 54.064244) with tilt (2.3895806 0 0)
  triclinic box = (0 0 0) to (8.7680956 6.30407 54.064244) with tilt (2.3895806 0 0)
  triclinic box = (0 0 0) to (8.7680956 6.30407 54.064244) with tilt (2.3895806 0 0)
  triclinic box = (0 0 0) to (8.7680956 6.30407 54.064244) with tilt (2.3895806 0 0)
  triclinic box = (0 0 0) to (8.7680956 6.30407 54.064244) with tilt (2.3895806 0 0)
echo none
run 0
WARNING: No fixes with time integration, atoms won't move (src/verlet.cpp:60)
Per MPI rank memory allocation (min/avg/max) = 8.717 | 8.717 | 8.717 Mbytes
    PotEng          Pxx           E_mol          E_coul    
-138.17631      2760.6111      0              0            
Loop time of 1.138e-06 on 1 procs for 0 steps with 48 atoms

263.6% CPU use with 1 MPI tasks x 1 OpenMP threads

MPI task timing breakdown:
Section |  min time  |  avg time  |  max time  |%varavg| %total
---------------------------------------------------------------
Pair    | 0          | 0          | 0          |   0.0 |  0.00
Neigh   | 0          | 0          | 0          |   0.0 |  0.00
Comm    | 0          | 0          | 0          |   0.0 |  0.00
Output  | 0          | 0          | 0          |   0.0 |  0.00
Modify  | 0          | 0          | 0          |   0.0 |  0.00
Other   |            | 1.138e-06  |            |       |100.00

Nlocal:             48 ave          48 max          48 min
Histogram: 1 0 0 0 0 0 0 0 0 0
Nghost:            415 ave         415 max         415 min
Histogram: 1 0 0 0 0 0 0 0 0 0
Neighs:           1356 ave        1356 max        1356 min
Histogram: 1 0 0 0 0 0 0 0 0 0
FullNghs:         2712 ave        2712 max        2712 min
Histogram: 1 0 0 0 0 0 0 0 0 0

Total # of neighbors = 2712
Ave neighs/atom = 56.5
Neighbor list builds = 0
Dangerous builds = 0
set atom * x 0.0 y 0.0 z 0.0
Setting atom values ...
  48 settings made for x
  48 settings made for y
  48 settings made for z
change_box all     x final 0 8.768095571747754 y final 0 6.30406998548646 z final 0 54.06424368497267      xy final 2.389580572880023 xz final 0.0 yz final 0.0 units box
Changing box ...
  triclinic box = (0 0 0) to (8.7680956 6.30407 54.064244) with tilt (2.3895806 0 0)
  triclinic box = (0 0 0) to (8.7680956 6.30407 54.064244) with tilt (2.3895806 0 0)
  triclinic box = (0 0 0) to (8.7680956 6.30407 54.064244) with tilt (2.3895806 0 0)
  triclinic box = (0 0 0) to (8.7680956 6.30407 54.064244) with tilt (2.3895806 0 0)
  triclinic box = (0 0 0) to (8.7680956 6.30407 54.064244) with tilt (2.3895806 0 0)
  triclinic box = (0 0 0) to (8.7680956 6.30407 54.064244) with tilt (2.3895806 0 0)
echo none
run 0
WARNING: No fixes with time integration, atoms won't move (src/verlet.cpp:60)
Per MPI rank memory allocation (min/avg/max) = 8.717 | 8.717 | 8.717 Mbytes
    PotEng          Pxx           E_mol          E_coul    
-138.38349      1424.9615      0              0            
Loop time of 1.849e-06 on 1 procs for 0 steps with 48 atoms

162.2% CPU use with 1 MPI tasks x 1 OpenMP threads

MPI task timing breakdown:
Section |  min time  |  avg time  |  max time  |%varavg| %total
---------------------------------------------------------------
Pair    | 0          | 0          | 0          |   0.0 |  0.00
Neigh   | 0          | 0          | 0          |   0.0 |  0.00
Comm    | 0          | 0          | 0          |   0.0 |  0.00
Output  | 0          | 0          | 0          |   0.0 |  0.00
Modify  | 0          | 0          | 0          |   0.0 |  0.00
Other   |            | 1.849e-06  |            |       |100.00

Nlocal:             48 ave          48 max          48 min
Histogram: 1 0 0 0 0 0 0 0 0 0
Nghost:            415 ave         415 max         415 min
Histogram: 1 0 0 0 0 0 0 0 0 0
Neighs:           1356 ave        1356 max        1356 min
Histogram: 1 0 0 0 0 0 0 0 0 0
FullNghs:         2712 ave        2712 max        2712 min
Histogram: 1 0 0 0 0 0 0 0 0 0

Total # of neighbors = 2712
Ave neighs/atom = 56.5
Neighbor list builds = 0
Dangerous builds = 0
set atom * x 0.0 y 0.0 z 0.0
Setting atom values ...
  48 settings made for x
  48 settings made for y
  48 settings made for z
change_box all     x final 0 8.768095571747754 y final 0 6.30406998548646 z final 0 54.06424368497267      xy final 2.389580572880023 xz final 0.0 yz final 0.0 units box
Changing box ...
  triclinic box = (0 0 0) to (8.7680956 6.30407 54.064244) with tilt (2.3895806 0 0)
  triclinic box = (0 0 0) to (8.7680956 6.30407 54.064244) with tilt (2.3895806 0 0)
  triclinic box = (0 0 0) to (8.7680956 6.30407 54.064244) with tilt (2.3895806 0 0)
  triclinic box = (0 0 0) to (8.7680956 6.30407 54.064244) with tilt (2.3895806 0 0)
  triclinic box = (0 0 0) to (8.7680956 6.30407 54.064244) with tilt (2.3895806 0 0)
  triclinic box = (0 0 0) to (8.7680956 6.30407 54.064244) with tilt (2.3895806 0 0)
echo none
run 0
WARNING: No fixes with time integration, atoms won't move (src/verlet.cpp:60)
Per MPI rank memory allocation (min/avg/max) = 8.717 | 8.717 | 8.717 Mbytes
    PotEng          Pxx           E_mol          E_coul    
-138.68491     -237.96441      0              0            
Loop time of 1.195e-06 on 1 procs for 0 steps with 48 atoms

251.0% CPU use with 1 MPI tasks x 1 OpenMP threads

MPI task timing breakdown:
Section |  min time  |  avg time  |  max time  |%varavg| %total
---------------------------------------------------------------
Pair    | 0          | 0          | 0          |   0.0 |  0.00
Neigh   | 0          | 0          | 0          |   0.0 |  0.00
Comm    | 0          | 0          | 0          |   0.0 |  0.00
Output  | 0          | 0          | 0          |   0.0 |  0.00
Modify  | 0          | 0          | 0          |   0.0 |  0.00
Other   |            | 1.195e-06  |            |       |100.00

Nlocal:             48 ave          48 max          48 min
Histogram: 1 0 0 0 0 0 0 0 0 0
Nghost:            415 ave         415 max         415 min
Histogram: 1 0 0 0 0 0 0 0 0 0
Neighs:           1356 ave        1356 max        1356 min
Histogram: 1 0 0 0 0 0 0 0 0 0
FullNghs:         2712 ave        2712 max        2712 min
Histogram: 1 0 0 0 0 0 0 0 0 0

Total # of neighbors = 2712
Ave neighs/atom = 56.5
Neighbor list builds = 0
Dangerous builds = 0
set atom * x 0.0 y 0.0 z 0.0
Setting atom values ...
  48 settings made for x
  48 settings made for y
  48 settings made for z
change_box all     x final 0 8.768095571747754 y final 0 6.30406998548646 z final 0 54.06424368497267      xy final 2.389580572880023 xz final 0.0 yz final 0.0 units box
Changing box ...
  triclinic box = (0 0 0) to (8.7680956 6.30407 54.064244) with tilt (2.3895806 0 0)
  triclinic box = (0 0 0) to (8.7680956 6.30407 54.064244) with tilt (2.3895806 0 0)
  triclinic box = (0 0 0) to (8.7680956 6.30407 54.064244) with tilt (2.3895806 0 0)
  triclinic box = (0 0 0) to (8.7680956 6.30407 54.064244) with tilt (2.3895806 0 0)
  triclinic box = (0 0 0) to (8.7680956 6.30407 54.064244) with tilt (2.3895806 0 0)
  triclinic box = (0 0 0) to (8.7680956 6.30407 54.064244) with tilt (2.3895806 0 0)
echo none
run 0
WARNING: No fixes with time integration, atoms won't move (src/verlet.cpp:60)
Per MPI rank memory allocation (min/avg/max) = 8.717 | 8.717 | 8.717 Mbytes
    PotEng          Pxx           E_mol          E_coul    
-138.78093     -876.30408      0              0            
Loop time of 2.635e-06 on 1 procs for 0 steps with 48 atoms

4402.3% CPU use with 1 MPI tasks x 1 OpenMP threads

MPI task timing breakdown:
Section |  min time  |  avg time  |  max time  |%varavg| %total
---------------------------------------------------------------
Pair    | 0          | 0          | 0          |   0.0 |  0.00
Neigh   | 0          | 0          | 0          |   0.0 |  0.00
Comm    | 0          | 0          | 0          |   0.0 |  0.00
Output  | 0          | 0          | 0          |   0.0 |  0.00
Modify  | 0          | 0          | 0          |   0.0 |  0.00
Other   |            | 2.635e-06  |            |       |100.00

Nlocal:             48 ave          48 max          48 min
Histogram: 1 0 0 0 0 0 0 0 0 0
Nghost:            412 ave         412 max         412 min
Histogram: 1 0 0 0 0 0 0 0 0 0
Neighs:           1356 ave        1356 max        1356 min
Histogram: 1 0 0 0 0 0 0 0 0 0
FullNghs:         2712 ave        2712 max        2712 min
Histogram: 1 0 0 0 0 0 0 0 0 0

Total # of neighbors = 2712
Ave neighs/atom = 56.5
Neighbor list builds = 0
Dangerous builds = 0
set atom * x 0.0 y 0.0 z 0.0
Setting atom values ...
  48 settings made for x
  48 settings made for y
  48 settings made for z
change_box all     x final 0 8.768095571747754 y final 0 6.30406998548646 z final 0 54.06424368497267      xy final 2.389580572880023 xz final 0.0 yz final 0.0 units box
Changing box ...
  triclinic box = (0 0 0) to (8.7680956 6.30407 54.064244) with tilt (2.3895806 0 0)
  triclinic box = (0 0 0) to (8.7680956 6.30407 54.064244) with tilt (2.3895806 0 0)
  triclinic box = (0 0 0) to (8.7680956 6.30407 54.064244) with tilt (2.3895806 0 0)
  triclinic box = (0 0 0) to (8.7680956 6.30407 54.064244) with tilt (2.3895806 0 0)
  triclinic box = (0 0 0) to (8.7680956 6.30407 54.064244) with tilt (2.3895806 0 0)
  triclinic box = (0 0 0) to (8.7680956 6.30407 54.064244) with tilt (2.3895806 0 0)
echo none
run 0
WARNING: No fixes with time integration, atoms won't move (src/verlet.cpp:60)
Per MPI rank memory allocation (min/avg/max) = 8.717 | 8.717 | 8.717 Mbytes
    PotEng          Pxx           E_mol          E_coul    
-138.83833     -1425.5162      0              0            
Loop time of 1.635e-06 on 1 procs for 0 steps with 48 atoms

122.3% CPU use with 1 MPI tasks x 1 OpenMP threads

MPI task timing breakdown:
Section |  min time  |  avg time  |  max time  |%varavg| %total
---------------------------------------------------------------
Pair    | 0          | 0          | 0          |   0.0 |  0.00
Neigh   | 0          | 0          | 0          |   0.0 |  0.00
Comm    | 0          | 0          | 0          |   0.0 |  0.00
Output  | 0          | 0          | 0          |   0.0 |  0.00
Modify  | 0          | 0          | 0          |   0.0 |  0.00
Other   |            | 1.635e-06  |            |       |100.00

Nlocal:             48 ave          48 max          48 min
Histogram: 1 0 0 0 0 0 0 0 0 0
Nghost:            412 ave         412 max         412 min
Histogram: 1 0 0 0 0 0 0 0 0 0
Neighs:           1356 ave        1356 max        1356 min
Histogram: 1 0 0 0 0 0 0 0 0 0
FullNghs:         2712 ave        2712 max        2712 min
Histogram: 1 0 0 0 0 0 0 0 0 0

Total # of neighbors = 2712
Ave neighs/atom = 56.5
Neighbor list builds = 0
Dangerous builds = 0
set atom * x 0.0 y 0.0 z 0.0
Setting atom values ...
  48 settings made for x
  48 settings made for y
  48 settings made for z
change_box all     x final 0 8.768095571747754 y final 0 6.30406998548646 z final 0 54.06424368497267      xy final 2.389580572880023 xz final 0.0 yz final 0.0 units box
Changing box ...
  triclinic box = (0 0 0) to (8.7680956 6.30407 54.064244) with tilt (2.3895806 0 0)
  triclinic box = (0 0 0) to (8.7680956 6.30407 54.064244) with tilt (2.3895806 0 0)
  triclinic box = (0 0 0) to (8.7680956 6.30407 54.064244) with tilt (2.3895806 0 0)
  triclinic box = (0 0 0) to (8.7680956 6.30407 54.064244) with tilt (2.3895806 0 0)
  triclinic box = (0 0 0) to (8.7680956 6.30407 54.064244) with tilt (2.3895806 0 0)
  triclinic box = (0 0 0) to (8.7680956 6.30407 54.064244) with tilt (2.3895806 0 0)
echo none
run 0
WARNING: No fixes with time integration, atoms won't move (src/verlet.cpp:60)
Per MPI rank memory allocation (min/avg/max) = 8.717 | 8.717 | 8.717 Mbytes
    PotEng          Pxx           E_mol          E_coul    
-138.877       -1929.7175      0              0            
Loop time of 1.641e-06 on 1 procs for 0 steps with 48 atoms

182.8% CPU use with 1 MPI tasks x 1 OpenMP threads

MPI task timing breakdown:
Section |  min time  |  avg time  |  max time  |%varavg| %total
---------------------------------------------------------------
Pair    | 0          | 0          | 0          |   0.0 |  0.00
Neigh   | 0          | 0          | 0          |   0.0 |  0.00
Comm    | 0          | 0          | 0          |   0.0 |  0.00
Output  | 0          | 0          | 0          |   0.0 |  0.00
Modify  | 0          | 0          | 0          |   0.0 |  0.00
Other   |            | 1.641e-06  |            |       |100.00

Nlocal:             48 ave          48 max          48 min
Histogram: 1 0 0 0 0 0 0 0 0 0
Nghost:            412 ave         412 max         412 min
Histogram: 1 0 0 0 0 0 0 0 0 0
Neighs:           1356 ave        1356 max        1356 min
Histogram: 1 0 0 0 0 0 0 0 0 0
FullNghs:         2712 ave        2712 max        2712 min
Histogram: 1 0 0 0 0 0 0 0 0 0

Total # of neighbors = 2712
Ave neighs/atom = 56.5
Neighbor list builds = 0
Dangerous builds = 0
set atom * x 0.0 y 0.0 z 0.0
Setting atom values ...
  48 settings made for x
  48 settings made for y
  48 settings made for z
change_box all     x final 0 8.768095571747754 y final 0 6.30406998548646 z final 0 54.06424368497267      xy final 2.389580572880023 xz final 0.0 yz final 0.0 units box
Changing box ...
  triclinic box = (0 0 0) to (8.7680956 6.30407 54.064244) with tilt (2.3895806 0 0)
  triclinic box = (0 0 0) to (8.7680956 6.30407 54.064244) with tilt (2.3895806 0 0)
  triclinic box = (0 0 0) to (8.7680956 6.30407 54.064244) with tilt (2.3895806 0 0)
  triclinic box = (0 0 0) to (8.7680956 6.30407 54.064244) with tilt (2.3895806 0 0)
  triclinic box = (0 0 0) to (8.7680956 6.30407 54.064244) with tilt (2.3895806 0 0)
  triclinic box = (0 0 0) to (8.7680956 6.30407 54.064244) with tilt (2.3895806 0 0)
echo none
run 0
WARNING: No fixes with time integration, atoms won't move (src/verlet.cpp:60)
Per MPI rank memory allocation (min/avg/max) = 8.717 | 8.717 | 8.717 Mbytes
    PotEng          Pxx           E_mol          E_coul    
-138.90563     -2383.8433      0              0            
Loop time of 1.495e-06 on 1 procs for 0 steps with 48 atoms

200.7% CPU use with 1 MPI tasks x 1 OpenMP threads

MPI task timing breakdown:
Section |  min time  |  avg time  |  max time  |%varavg| %total
---------------------------------------------------------------
Pair    | 0          | 0          | 0          |   0.0 |  0.00
Neigh   | 0          | 0          | 0          |   0.0 |  0.00
Comm    | 0          | 0          | 0          |   0.0 |  0.00
Output  | 0          | 0          | 0          |   0.0 |  0.00
Modify  | 0          | 0          | 0          |   0.0 |  0.00
Other   |            | 1.495e-06  |            |       |100.00

Nlocal:             48 ave          48 max          48 min
Histogram: 1 0 0 0 0 0 0 0 0 0
Nghost:            412 ave         412 max         412 min
Histogram: 1 0 0 0 0 0 0 0 0 0
Neighs:           1356 ave        1356 max        1356 min
Histogram: 1 0 0 0 0 0 0 0 0 0
FullNghs:         2712 ave        2712 max        2712 min
Histogram: 1 0 0 0 0 0 0 0 0 0

Total # of neighbors = 2712
Ave neighs/atom = 56.5
Neighbor list builds = 0
Dangerous builds = 0
set atom * x 0.0 y 0.0 z 0.0
Setting atom values ...
  48 settings made for x
  48 settings made for y
  48 settings made for z
change_box all     x final 0 8.768095571747754 y final 0 6.30406998548646 z final 0 54.06424368497267      xy final 2.389580572880023 xz final 0.0 yz final 0.0 units box
Changing box ...
  triclinic box = (0 0 0) to (8.7680956 6.30407 54.064244) with tilt (2.3895806 0 0)
  triclinic box = (0 0 0) to (8.7680956 6.30407 54.064244) with tilt (2.3895806 0 0)
  triclinic box = (0 0 0) to (8.7680956 6.30407 54.064244) with tilt (2.3895806 0 0)
  triclinic box = (0 0 0) to (8.7680956 6.30407 54.064244) with tilt (2.3895806 0 0)
  triclinic box = (0 0 0) to (8.7680956 6.30407 54.064244) with tilt (2.3895806 0 0)
  triclinic box = (0 0 0) to (8.7680956 6.30407 54.064244) with tilt (2.3895806 0 0)
echo none
run 0
WARNING: No fixes with time integration, atoms won't move (src/verlet.cpp:60)
Per MPI rank memory allocation (min/avg/max) = 8.717 | 8.717 | 8.717 Mbytes
    PotEng          Pxx           E_mol          E_coul    
-138.92951     -2799.4327      0              0            
Loop time of 1.423e-06 on 1 procs for 0 steps with 48 atoms

210.8% CPU use with 1 MPI tasks x 1 OpenMP threads

MPI task timing breakdown:
Section |  min time  |  avg time  |  max time  |%varavg| %total
---------------------------------------------------------------
Pair    | 0          | 0          | 0          |   0.0 |  0.00
Neigh   | 0          | 0          | 0          |   0.0 |  0.00
Comm    | 0          | 0          | 0          |   0.0 |  0.00
Output  | 0          | 0          | 0          |   0.0 |  0.00
Modify  | 0          | 0          | 0          |   0.0 |  0.00
Other   |            | 1.423e-06  |            |       |100.00

Nlocal:             48 ave          48 max          48 min
Histogram: 1 0 0 0 0 0 0 0 0 0
Nghost:            415 ave         415 max         415 min
Histogram: 1 0 0 0 0 0 0 0 0 0
Neighs:           1356 ave        1356 max        1356 min
Histogram: 1 0 0 0 0 0 0 0 0 0
FullNghs:         2712 ave        2712 max        2712 min
Histogram: 1 0 0 0 0 0 0 0 0 0

Total # of neighbors = 2712
Ave neighs/atom = 56.5
Neighbor list builds = 0
Dangerous builds = 0
set atom * x 0.0 y 0.0 z 0.0
Setting atom values ...
  48 settings made for x
  48 settings made for y
  48 settings made for z
change_box all     x final 0 8.768095571747754 y final 0 6.30406998548646 z final 0 54.06424368497267      xy final 2.389580572880023 xz final 0.0 yz final 0.0 units box
Changing box ...
  triclinic box = (0 0 0) to (8.7680956 6.30407 54.064244) with tilt (2.3895806 0 0)
  triclinic box = (0 0 0) to (8.7680956 6.30407 54.064244) with tilt (2.3895806 0 0)
  triclinic box = (0 0 0) to (8.7680956 6.30407 54.064244) with tilt (2.3895806 0 0)
  triclinic box = (0 0 0) to (8.7680956 6.30407 54.064244) with tilt (2.3895806 0 0)
  triclinic box = (0 0 0) to (8.7680956 6.30407 54.064244) with tilt (2.3895806 0 0)
  triclinic box = (0 0 0) to (8.7680956 6.30407 54.064244) with tilt (2.3895806 0 0)
echo none
run 0
WARNING: No fixes with time integration, atoms won't move (src/verlet.cpp:60)
Per MPI rank memory allocation (min/avg/max) = 8.717 | 8.717 | 8.717 Mbytes
    PotEng          Pxx           E_mol          E_coul    
-138.95062     -3183.1446      0              0            
Loop time of 1.233e-06 on 1 procs for 0 steps with 48 atoms

162.2% CPU use with 1 MPI tasks x 1 OpenMP threads

MPI task timing breakdown:
Section |  min time  |  avg time  |  max time  |%varavg| %total
---------------------------------------------------------------
Pair    | 0          | 0          | 0          |   0.0 |  0.00
Neigh   | 0          | 0          | 0          |   0.0 |  0.00
Comm    | 0          | 0          | 0          |   0.0 |  0.00
Output  | 0          | 0          | 0          |   0.0 |  0.00
Modify  | 0          | 0          | 0          |   0.0 |  0.00
Other   |            | 1.233e-06  |            |       |100.00

Nlocal:             48 ave          48 max          48 min
Histogram: 1 0 0 0 0 0 0 0 0 0
Nghost:            415 ave         415 max         415 min
Histogram: 1 0 0 0 0 0 0 0 0 0
Neighs:           1356 ave        1356 max        1356 min
Histogram: 1 0 0 0 0 0 0 0 0 0
FullNghs:         2712 ave        2712 max        2712 min
Histogram: 1 0 0 0 0 0 0 0 0 0

Total # of neighbors = 2712
Ave neighs/atom = 56.5
Neighbor list builds = 0
Dangerous builds = 0
set atom * x 0.0 y 0.0 z 0.0
Setting atom values ...
  48 settings made for x
  48 settings made for y
  48 settings made for z
change_box all     x final 0 8.768095571747754 y final 0 6.30406998548646 z final 0 54.06424368497267      xy final 2.389580572880023 xz final 0.0 yz final 0.0 units box
Changing box ...
  triclinic box = (0 0 0) to (8.7680956 6.30407 54.064244) with tilt (2.3895806 0 0)
  triclinic box = (0 0 0) to (8.7680956 6.30407 54.064244) with tilt (2.3895806 0 0)
  triclinic box = (0 0 0) to (8.7680956 6.30407 54.064244) with tilt (2.3895806 0 0)
  triclinic box = (0 0 0) to (8.7680956 6.30407 54.064244) with tilt (2.3895806 0 0)
  triclinic box = (0 0 0) to (8.7680956 6.30407 54.064244) with tilt (2.3895806 0 0)
  triclinic box = (0 0 0) to (8.7680956 6.30407 54.064244) with tilt (2.3895806 0 0)
echo none
run 0
WARNING: No fixes with time integration, atoms won't move (src/verlet.cpp:60)
Per MPI rank memory allocation (min/avg/max) = 8.717 | 8.717 | 8.717 Mbytes
    PotEng          Pxx           E_mol          E_coul    
-138.96878     -3519.3189      0              0            
Loop time of 1.648e-06 on 1 procs for 0 steps with 48 atoms

182.0% CPU use with 1 MPI tasks x 1 OpenMP threads

MPI task timing breakdown:
Section |  min time  |  avg time  |  max time  |%varavg| %total
---------------------------------------------------------------
Pair    | 0          | 0          | 0          |   0.0 |  0.00
Neigh   | 0          | 0          | 0          |   0.0 |  0.00
Comm    | 0          | 0          | 0          |   0.0 |  0.00
Output  | 0          | 0          | 0          |   0.0 |  0.00
Modify  | 0          | 0          | 0          |   0.0 |  0.00
Other   |            | 1.648e-06  |            |       |100.00

Nlocal:             48 ave          48 max          48 min
Histogram: 1 0 0 0 0 0 0 0 0 0
Nghost:            415 ave         415 max         415 min
Histogram: 1 0 0 0 0 0 0 0 0 0
Neighs:           1356 ave        1356 max        1356 min
Histogram: 1 0 0 0 0 0 0 0 0 0
FullNghs:         2712 ave        2712 max        2712 min
Histogram: 1 0 0 0 0 0 0 0 0 0

Total # of neighbors = 2712
Ave neighs/atom = 56.5
Neighbor list builds = 0
Dangerous builds = 0
set atom * x 0.0 y 0.0 z 0.0
Setting atom values ...
  48 settings made for x
  48 settings made for y
  48 settings made for z
change_box all     x final 0 8.768095571747754 y final 0 6.30406998548646 z final 0 54.06424368497267      xy final 2.389580572880023 xz final 0.0 yz final 0.0 units box
Changing box ...
  triclinic box = (0 0 0) to (8.7680956 6.30407 54.064244) with tilt (2.3895806 0 0)
  triclinic box = (0 0 0) to (8.7680956 6.30407 54.064244) with tilt (2.3895806 0 0)
  triclinic box = (0 0 0) to (8.7680956 6.30407 54.064244) with tilt (2.3895806 0 0)
  triclinic box = (0 0 0) to (8.7680956 6.30407 54.064244) with tilt (2.3895806 0 0)
  triclinic box = (0 0 0) to (8.7680956 6.30407 54.064244) with tilt (2.3895806 0 0)
  triclinic box = (0 0 0) to (8.7680956 6.30407 54.064244) with tilt (2.3895806 0 0)
echo none
run 0
WARNING: No fixes with time integration, atoms won't move (src/verlet.cpp:60)
Per MPI rank memory allocation (min/avg/max) = 8.717 | 8.717 | 8.717 Mbytes
    PotEng          Pxx           E_mol          E_coul    
-138.98182     -3772.1008      0              0            
Loop time of 1.332e-06 on 1 procs for 0 steps with 48 atoms

225.2% CPU use with 1 MPI tasks x 1 OpenMP threads

MPI task timing breakdown:
Section |  min time  |  avg time  |  max time  |%varavg| %total
---------------------------------------------------------------
Pair    | 0          | 0          | 0          |   0.0 |  0.00
Neigh   | 0          | 0          | 0          |   0.0 |  0.00
Comm    | 0          | 0          | 0          |   0.0 |  0.00
Output  | 0          | 0          | 0          |   0.0 |  0.00
Modify  | 0          | 0          | 0          |   0.0 |  0.00
Other   |            | 1.332e-06  |            |       |100.00

Nlocal:             48 ave          48 max          48 min
Histogram: 1 0 0 0 0 0 0 0 0 0
Nghost:            415 ave         415 max         415 min
Histogram: 1 0 0 0 0 0 0 0 0 0
Neighs:           1356 ave        1356 max        1356 min
Histogram: 1 0 0 0 0 0 0 0 0 0
FullNghs:         2712 ave        2712 max        2712 min
Histogram: 1 0 0 0 0 0 0 0 0 0

Total # of neighbors = 2712
Ave neighs/atom = 56.5
Neighbor list builds = 0
Dangerous builds = 0
set atom * x 0.0 y 0.0 z 0.0
Setting atom values ...
  48 settings made for x
  48 settings made for y
  48 settings made for z
change_box all     x final 0 8.768095571747754 y final 0 6.30406998548646 z final 0 54.06424368497267      xy final 2.389580572880023 xz final 0.0 yz final 0.0 units box
Changing box ...
  triclinic box = (0 0 0) to (8.7680956 6.30407 54.064244) with tilt (2.3895806 0 0)
  triclinic box = (0 0 0) to (8.7680956 6.30407 54.064244) with tilt (2.3895806 0 0)
  triclinic box = (0 0 0) to (8.7680956 6.30407 54.064244) with tilt (2.3895806 0 0)
  triclinic box = (0 0 0) to (8.7680956 6.30407 54.064244) with tilt (2.3895806 0 0)
  triclinic box = (0 0 0) to (8.7680956 6.30407 54.064244) with tilt (2.3895806 0 0)
  triclinic box = (0 0 0) to (8.7680956 6.30407 54.064244) with tilt (2.3895806 0 0)
echo none
run 0
WARNING: No fixes with time integration, atoms won't move (src/verlet.cpp:60)
Per MPI rank memory allocation (min/avg/max) = 8.717 | 8.717 | 8.717 Mbytes
    PotEng          Pxx           E_mol          E_coul    
-138.98877     -3923.5904      0              0            
Loop time of 1.493e-06 on 1 procs for 0 steps with 48 atoms

200.9% CPU use with 1 MPI tasks x 1 OpenMP threads

MPI task timing breakdown:
Section |  min time  |  avg time  |  max time  |%varavg| %total
---------------------------------------------------------------
Pair    | 0          | 0          | 0          |   0.0 |  0.00
Neigh   | 0          | 0          | 0          |   0.0 |  0.00
Comm    | 0          | 0          | 0          |   0.0 |  0.00
Output  | 0          | 0          | 0          |   0.0 |  0.00
Modify  | 0          | 0          | 0          |   0.0 |  0.00
Other   |            | 1.493e-06  |            |       |100.00

Nlocal:             48 ave          48 max          48 min
Histogram: 1 0 0 0 0 0 0 0 0 0
Nghost:            415 ave         415 max         415 min
Histogram: 1 0 0 0 0 0 0 0 0 0
Neighs:           1356 ave        1356 max        1356 min
Histogram: 1 0 0 0 0 0 0 0 0 0
FullNghs:         2712 ave        2712 max        2712 min
Histogram: 1 0 0 0 0 0 0 0 0 0

Total # of neighbors = 2712
Ave neighs/atom = 56.5
Neighbor list builds = 0
Dangerous builds = 0
set atom * x 0.0 y 0.0 z 0.0
Setting atom values ...
  48 settings made for x
  48 settings made for y
  48 settings made for z
change_box all     x final 0 8.768095571747754 y final 0 6.30406998548646 z final 0 54.06424368497267      xy final 2.389580572880023 xz final 0.0 yz final 0.0 units box
Changing box ...
  triclinic box = (0 0 0) to (8.7680956 6.30407 54.064244) with tilt (2.3895806 0 0)
  triclinic box = (0 0 0) to (8.7680956 6.30407 54.064244) with tilt (2.3895806 0 0)
  triclinic box = (0 0 0) to (8.7680956 6.30407 54.064244) with tilt (2.3895806 0 0)
  triclinic box = (0 0 0) to (8.7680956 6.30407 54.064244) with tilt (2.3895806 0 0)
  triclinic box = (0 0 0) to (8.7680956 6.30407 54.064244) with tilt (2.3895806 0 0)
  triclinic box = (0 0 0) to (8.7680956 6.30407 54.064244) with tilt (2.3895806 0 0)
echo none
run 0
WARNING: No fixes with time integration, atoms won't move (src/verlet.cpp:60)
Per MPI rank memory allocation (min/avg/max) = 8.717 | 8.717 | 8.717 Mbytes
    PotEng          Pxx           E_mol          E_coul    
-138.99352     -4048.2075      0              0            
Loop time of 9.89e-07 on 1 procs for 0 steps with 48 atoms

202.2% CPU use with 1 MPI tasks x 1 OpenMP threads

MPI task timing breakdown:
Section |  min time  |  avg time  |  max time  |%varavg| %total
---------------------------------------------------------------
Pair    | 0          | 0          | 0          |   0.0 |  0.00
Neigh   | 0          | 0          | 0          |   0.0 |  0.00
Comm    | 0          | 0          | 0          |   0.0 |  0.00
Output  | 0          | 0          | 0          |   0.0 |  0.00
Modify  | 0          | 0          | 0          |   0.0 |  0.00
Other   |            | 9.89e-07   |            |       |100.00

Nlocal:             48 ave          48 max          48 min
Histogram: 1 0 0 0 0 0 0 0 0 0
Nghost:            415 ave         415 max         415 min
Histogram: 1 0 0 0 0 0 0 0 0 0
Neighs:           1356 ave        1356 max        1356 min
Histogram: 1 0 0 0 0 0 0 0 0 0
FullNghs:         2712 ave        2712 max        2712 min
Histogram: 1 0 0 0 0 0 0 0 0 0

Total # of neighbors = 2712
Ave neighs/atom = 56.5
Neighbor list builds = 0
Dangerous builds = 0
set atom * x 0.0 y 0.0 z 0.0
Setting atom values ...
  48 settings made for x
  48 settings made for y
  48 settings made for z
change_box all     x final 0 8.768095571747754 y final 0 6.30406998548646 z final 0 54.06424368497267      xy final 2.389580572880023 xz final 0.0 yz final 0.0 units box
Changing box ...
  triclinic box = (0 0 0) to (8.7680956 6.30407 54.064244) with tilt (2.3895806 0 0)
  triclinic box = (0 0 0) to (8.7680956 6.30407 54.064244) with tilt (2.3895806 0 0)
  triclinic box = (0 0 0) to (8.7680956 6.30407 54.064244) with tilt (2.3895806 0 0)
  triclinic box = (0 0 0) to (8.7680956 6.30407 54.064244) with tilt (2.3895806 0 0)
  triclinic box = (0 0 0) to (8.7680956 6.30407 54.064244) with tilt (2.3895806 0 0)
  triclinic box = (0 0 0) to (8.7680956 6.30407 54.064244) with tilt (2.3895806 0 0)
echo none
run 0
WARNING: No fixes with time integration, atoms won't move (src/verlet.cpp:60)
Per MPI rank memory allocation (min/avg/max) = 8.717 | 8.717 | 8.717 Mbytes
    PotEng          Pxx           E_mol          E_coul    
-138.99936     -4236.0505      0              0            
Loop time of 8.9e-07 on 1 procs for 0 steps with 48 atoms

224.7% CPU use with 1 MPI tasks x 1 OpenMP threads

MPI task timing breakdown:
Section |  min time  |  avg time  |  max time  |%varavg| %total
---------------------------------------------------------------
Pair    | 0          | 0          | 0          |   0.0 |  0.00
Neigh   | 0          | 0          | 0          |   0.0 |  0.00
Comm    | 0          | 0          | 0          |   0.0 |  0.00
Output  | 0          | 0          | 0          |   0.0 |  0.00
Modify  | 0          | 0          | 0          |   0.0 |  0.00
Other   |            | 8.9e-07    |            |       |100.00

Nlocal:             48 ave          48 max          48 min
Histogram: 1 0 0 0 0 0 0 0 0 0
Nghost:            415 ave         415 max         415 min
Histogram: 1 0 0 0 0 0 0 0 0 0
Neighs:           1356 ave        1356 max        1356 min
Histogram: 1 0 0 0 0 0 0 0 0 0
FullNghs:         2712 ave        2712 max        2712 min
Histogram: 1 0 0 0 0 0 0 0 0 0

Total # of neighbors = 2712
Ave neighs/atom = 56.5
Neighbor list builds = 0
Dangerous builds = 0
set atom * x 0.0 y 0.0 z 0.0
Setting atom values ...
  48 settings made for x
  48 settings made for y
  48 settings made for z
change_box all     x final 0 8.768095571747754 y final 0 6.30406998548646 z final 0 54.06424368497267      xy final 2.389580572880023 xz final 0.0 yz final 0.0 units box
Changing box ...
  triclinic box = (0 0 0) to (8.7680956 6.30407 54.064244) with tilt (2.3895806 0 0)
  triclinic box = (0 0 0) to (8.7680956 6.30407 54.064244) with tilt (2.3895806 0 0)
  triclinic box = (0 0 0) to (8.7680956 6.30407 54.064244) with tilt (2.3895806 0 0)
  triclinic box = (0 0 0) to (8.7680956 6.30407 54.064244) with tilt (2.3895806 0 0)
  triclinic box = (0 0 0) to (8.7680956 6.30407 54.064244) with tilt (2.3895806 0 0)
  triclinic box = (0 0 0) to (8.7680956 6.30407 54.064244) with tilt (2.3895806 0 0)
echo none
run 0
WARNING: No fixes with time integration, atoms won't move (src/verlet.cpp:60)
Per MPI rank memory allocation (min/avg/max) = 8.717 | 8.717 | 8.717 Mbytes
    PotEng          Pxx           E_mol          E_coul    
-139.00782     -4546.775       0              0            
Loop time of 1.397e-06 on 1 procs for 0 steps with 48 atoms

143.2% CPU use with 1 MPI tasks x 1 OpenMP threads

MPI task timing breakdown:
Section |  min time  |  avg time  |  max time  |%varavg| %total
---------------------------------------------------------------
Pair    | 0          | 0          | 0          |   0.0 |  0.00
Neigh   | 0          | 0          | 0          |   0.0 |  0.00
Comm    | 0          | 0          | 0          |   0.0 |  0.00
Output  | 0          | 0          | 0          |   0.0 |  0.00
Modify  | 0          | 0          | 0          |   0.0 |  0.00
Other   |            | 1.397e-06  |            |       |100.00

Nlocal:             48 ave          48 max          48 min
Histogram: 1 0 0 0 0 0 0 0 0 0
Nghost:            415 ave         415 max         415 min
Histogram: 1 0 0 0 0 0 0 0 0 0
Neighs:           1356 ave        1356 max        1356 min
Histogram: 1 0 0 0 0 0 0 0 0 0
FullNghs:         2712 ave        2712 max        2712 min
Histogram: 1 0 0 0 0 0 0 0 0 0

Total # of neighbors = 2712
Ave neighs/atom = 56.5
Neighbor list builds = 0
Dangerous builds = 0
set atom * x 0.0 y 0.0 z 0.0
Setting atom values ...
  48 settings made for x
  48 settings made for y
  48 settings made for z
change_box all     x final 0 8.768095571747754 y final 0 6.30406998548646 z final 0 54.06424368497267      xy final 2.389580572880023 xz final 0.0 yz final 0.0 units box
Changing box ...
  triclinic box = (0 0 0) to (8.7680956 6.30407 54.064244) with tilt (2.3895806 0 0)
  triclinic box = (0 0 0) to (8.7680956 6.30407 54.064244) with tilt (2.3895806 0 0)
  triclinic box = (0 0 0) to (8.7680956 6.30407 54.064244) with tilt (2.3895806 0 0)
  triclinic box = (0 0 0) to (8.7680956 6.30407 54.064244) with tilt (2.3895806 0 0)
  triclinic box = (0 0 0) to (8.7680956 6.30407 54.064244) with tilt (2.3895806 0 0)
  triclinic box = (0 0 0) to (8.7680956 6.30407 54.064244) with tilt (2.3895806 0 0)
echo none
run 0
WARNING: No fixes with time integration, atoms won't move (src/verlet.cpp:60)
Per MPI rank memory allocation (min/avg/max) = 8.717 | 8.717 | 8.717 Mbytes
    PotEng          Pxx           E_mol          E_coul    
-139.0196      -5004.9982      0              0            
Loop time of 1.437e-06 on 1 procs for 0 steps with 48 atoms

208.8% CPU use with 1 MPI tasks x 1 OpenMP threads

MPI task timing breakdown:
Section |  min time  |  avg time  |  max time  |%varavg| %total
---------------------------------------------------------------
Pair    | 0          | 0          | 0          |   0.0 |  0.00
Neigh   | 0          | 0          | 0          |   0.0 |  0.00
Comm    | 0          | 0          | 0          |   0.0 |  0.00
Output  | 0          | 0          | 0          |   0.0 |  0.00
Modify  | 0          | 0          | 0          |   0.0 |  0.00
Other   |            | 1.437e-06  |            |       |100.00

Nlocal:             48 ave          48 max          48 min
Histogram: 1 0 0 0 0 0 0 0 0 0
Nghost:            415 ave         415 max         415 min
Histogram: 1 0 0 0 0 0 0 0 0 0
Neighs:           1356 ave        1356 max        1356 min
Histogram: 1 0 0 0 0 0 0 0 0 0
FullNghs:         2712 ave        2712 max        2712 min
Histogram: 1 0 0 0 0 0 0 0 0 0

Total # of neighbors = 2712
Ave neighs/atom = 56.5
Neighbor list builds = 0
Dangerous builds = 0
set atom * x 0.0 y 0.0 z 0.0
Setting atom values ...
  48 settings made for x
  48 settings made for y
  48 settings made for z
change_box all     x final 0 8.768095571747754 y final 0 6.30406998548646 z final 0 54.06424368497267      xy final 2.389580572880023 xz final 0.0 yz final 0.0 units box
Changing box ...
  triclinic box = (0 0 0) to (8.7680956 6.30407 54.064244) with tilt (2.3895806 0 0)
  triclinic box = (0 0 0) to (8.7680956 6.30407 54.064244) with tilt (2.3895806 0 0)
  triclinic box = (0 0 0) to (8.7680956 6.30407 54.064244) with tilt (2.3895806 0 0)
  triclinic box = (0 0 0) to (8.7680956 6.30407 54.064244) with tilt (2.3895806 0 0)
  triclinic box = (0 0 0) to (8.7680956 6.30407 54.064244) with tilt (2.3895806 0 0)
  triclinic box = (0 0 0) to (8.7680956 6.30407 54.064244) with tilt (2.3895806 0 0)
echo none
run 0
WARNING: No fixes with time integration, atoms won't move (src/verlet.cpp:60)
Per MPI rank memory allocation (min/avg/max) = 8.717 | 8.717 | 8.717 Mbytes
    PotEng          Pxx           E_mol          E_coul    
-139.03348     -5533.7088      0              0            
Loop time of 1.327e-06 on 1 procs for 0 steps with 48 atoms

150.7% CPU use with 1 MPI tasks x 1 OpenMP threads

MPI task timing breakdown:
Section |  min time  |  avg time  |  max time  |%varavg| %total
---------------------------------------------------------------
Pair    | 0          | 0          | 0          |   0.0 |  0.00
Neigh   | 0          | 0          | 0          |   0.0 |  0.00
Comm    | 0          | 0          | 0          |   0.0 |  0.00
Output  | 0          | 0          | 0          |   0.0 |  0.00
Modify  | 0          | 0          | 0          |   0.0 |  0.00
Other   |            | 1.327e-06  |            |       |100.00

Nlocal:             48 ave          48 max          48 min
Histogram: 1 0 0 0 0 0 0 0 0 0
Nghost:            415 ave         415 max         415 min
Histogram: 1 0 0 0 0 0 0 0 0 0
Neighs:           1356 ave        1356 max        1356 min
Histogram: 1 0 0 0 0 0 0 0 0 0
FullNghs:         2712 ave        2712 max        2712 min
Histogram: 1 0 0 0 0 0 0 0 0 0

Total # of neighbors = 2712
Ave neighs/atom = 56.5
Neighbor list builds = 0
Dangerous builds = 0
set atom * x 0.0 y 0.0 z 0.0
Setting atom values ...
  48 settings made for x
  48 settings made for y
  48 settings made for z
change_box all     x final 0 8.768095571747754 y final 0 6.30406998548646 z final 0 54.06424368497267      xy final 2.389580572880023 xz final 0.0 yz final 0.0 units box
Changing box ...
  triclinic box = (0 0 0) to (8.7680956 6.30407 54.064244) with tilt (2.3895806 0 0)
  triclinic box = (0 0 0) to (8.7680956 6.30407 54.064244) with tilt (2.3895806 0 0)
  triclinic box = (0 0 0) to (8.7680956 6.30407 54.064244) with tilt (2.3895806 0 0)
  triclinic box = (0 0 0) to (8.7680956 6.30407 54.064244) with tilt (2.3895806 0 0)
  triclinic box = (0 0 0) to (8.7680956 6.30407 54.064244) with tilt (2.3895806 0 0)
  triclinic box = (0 0 0) to (8.7680956 6.30407 54.064244) with tilt (2.3895806 0 0)
echo none
run 0
WARNING: No fixes with time integration, atoms won't move (src/verlet.cpp:60)
Per MPI rank memory allocation (min/avg/max) = 8.717 | 8.717 | 8.717 Mbytes
    PotEng          Pxx           E_mol          E_coul    
-139.04641     -5964.1928      0              0            
Loop time of 9.18e-07 on 1 procs for 0 steps with 48 atoms

217.9% CPU use with 1 MPI tasks x 1 OpenMP threads

MPI task timing breakdown:
Section |  min time  |  avg time  |  max time  |%varavg| %total
---------------------------------------------------------------
Pair    | 0          | 0          | 0          |   0.0 |  0.00
Neigh   | 0          | 0          | 0          |   0.0 |  0.00
Comm    | 0          | 0          | 0          |   0.0 |  0.00
Output  | 0          | 0          | 0          |   0.0 |  0.00
Modify  | 0          | 0          | 0          |   0.0 |  0.00
Other   |            | 9.18e-07   |            |       |100.00

Nlocal:             48 ave          48 max          48 min
Histogram: 1 0 0 0 0 0 0 0 0 0
Nghost:            412 ave         412 max         412 min
Histogram: 1 0 0 0 0 0 0 0 0 0
Neighs:           1360 ave        1360 max        1360 min
Histogram: 1 0 0 0 0 0 0 0 0 0
FullNghs:         2720 ave        2720 max        2720 min
Histogram: 1 0 0 0 0 0 0 0 0 0

Total # of neighbors = 2720
Ave neighs/atom = 56.666667
Neighbor list builds = 0
Dangerous builds = 0
set atom * x 0.0 y 0.0 z 0.0
Setting atom values ...
  48 settings made for x
  48 settings made for y
  48 settings made for z
change_box all     x final 0 8.768095571747754 y final 0 6.30406998548646 z final 0 54.06424368497267      xy final 2.389580572880023 xz final 0.0 yz final 0.0 units box
Changing box ...
  triclinic box = (0 0 0) to (8.7680956 6.30407 54.064244) with tilt (2.3895806 0 0)
  triclinic box = (0 0 0) to (8.7680956 6.30407 54.064244) with tilt (2.3895806 0 0)
  triclinic box = (0 0 0) to (8.7680956 6.30407 54.064244) with tilt (2.3895806 0 0)
  triclinic box = (0 0 0) to (8.7680956 6.30407 54.064244) with tilt (2.3895806 0 0)
  triclinic box = (0 0 0) to (8.7680956 6.30407 54.064244) with tilt (2.3895806 0 0)
  triclinic box = (0 0 0) to (8.7680956 6.30407 54.064244) with tilt (2.3895806 0 0)
echo none
run 0
WARNING: No fixes with time integration, atoms won't move (src/verlet.cpp:60)
Per MPI rank memory allocation (min/avg/max) = 8.717 | 8.717 | 8.717 Mbytes
    PotEng          Pxx           E_mol          E_coul    
-139.05597     -6184.3954      0              0            
Loop time of 9.03e-07 on 1 procs for 0 steps with 48 atoms

221.5% CPU use with 1 MPI tasks x 1 OpenMP threads

MPI task timing breakdown:
Section |  min time  |  avg time  |  max time  |%varavg| %total
---------------------------------------------------------------
Pair    | 0          | 0          | 0          |   0.0 |  0.00
Neigh   | 0          | 0          | 0          |   0.0 |  0.00
Comm    | 0          | 0          | 0          |   0.0 |  0.00
Output  | 0          | 0          | 0          |   0.0 |  0.00
Modify  | 0          | 0          | 0          |   0.0 |  0.00
Other   |            | 9.03e-07   |            |       |100.00

Nlocal:             48 ave          48 max          48 min
Histogram: 1 0 0 0 0 0 0 0 0 0
Nghost:            412 ave         412 max         412 min
Histogram: 1 0 0 0 0 0 0 0 0 0
Neighs:           1360 ave        1360 max        1360 min
Histogram: 1 0 0 0 0 0 0 0 0 0
FullNghs:         2720 ave        2720 max        2720 min
Histogram: 1 0 0 0 0 0 0 0 0 0

Total # of neighbors = 2720
Ave neighs/atom = 56.666667
Neighbor list builds = 0
Dangerous builds = 0
set atom * x 0.0 y 0.0 z 0.0
Setting atom values ...
  48 settings made for x
  48 settings made for y
  48 settings made for z
change_box all     x final 0 8.768095571747754 y final 0 6.30406998548646 z final 0 54.06424368497267      xy final 2.389580572880023 xz final 0.0 yz final 0.0 units box
Changing box ...
  triclinic box = (0 0 0) to (8.7680956 6.30407 54.064244) with tilt (2.3895806 0 0)
  triclinic box = (0 0 0) to (8.7680956 6.30407 54.064244) with tilt (2.3895806 0 0)
  triclinic box = (0 0 0) to (8.7680956 6.30407 54.064244) with tilt (2.3895806 0 0)
  triclinic box = (0 0 0) to (8.7680956 6.30407 54.064244) with tilt (2.3895806 0 0)
  triclinic box = (0 0 0) to (8.7680956 6.30407 54.064244) with tilt (2.3895806 0 0)
  triclinic box = (0 0 0) to (8.7680956 6.30407 54.064244) with tilt (2.3895806 0 0)
echo none
run 0
WARNING: No fixes with time integration, atoms won't move (src/verlet.cpp:60)
Per MPI rank memory allocation (min/avg/max) = 8.717 | 8.717 | 8.717 Mbytes
    PotEng          Pxx           E_mol          E_coul    
-139.06216     -6243.0835      0              0            
Loop time of 1.528e-06 on 1 procs for 0 steps with 48 atoms

196.3% CPU use with 1 MPI tasks x 1 OpenMP threads

MPI task timing breakdown:
Section |  min time  |  avg time  |  max time  |%varavg| %total
---------------------------------------------------------------
Pair    | 0          | 0          | 0          |   0.0 |  0.00
Neigh   | 0          | 0          | 0          |   0.0 |  0.00
Comm    | 0          | 0          | 0          |   0.0 |  0.00
Output  | 0          | 0          | 0          |   0.0 |  0.00
Modify  | 0          | 0          | 0          |   0.0 |  0.00
Other   |            | 1.528e-06  |            |       |100.00

Nlocal:             48 ave          48 max          48 min
Histogram: 1 0 0 0 0 0 0 0 0 0
Nghost:            412 ave         412 max         412 min
Histogram: 1 0 0 0 0 0 0 0 0 0
Neighs:           1360 ave        1360 max        1360 min
Histogram: 1 0 0 0 0 0 0 0 0 0
FullNghs:         2720 ave        2720 max        2720 min
Histogram: 1 0 0 0 0 0 0 0 0 0

Total # of neighbors = 2720
Ave neighs/atom = 56.666667
Neighbor list builds = 0
Dangerous builds = 0
set atom * x 0.0 y 0.0 z 0.0
Setting atom values ...
  48 settings made for x
  48 settings made for y
  48 settings made for z
change_box all     x final 0 8.768095571747754 y final 0 6.30406998548646 z final 0 54.06424368497267      xy final 2.389580572880023 xz final 0.0 yz final 0.0 units box
Changing box ...
  triclinic box = (0 0 0) to (8.7680956 6.30407 54.064244) with tilt (2.3895806 0 0)
  triclinic box = (0 0 0) to (8.7680956 6.30407 54.064244) with tilt (2.3895806 0 0)
  triclinic box = (0 0 0) to (8.7680956 6.30407 54.064244) with tilt (2.3895806 0 0)
  triclinic box = (0 0 0) to (8.7680956 6.30407 54.064244) with tilt (2.3895806 0 0)
  triclinic box = (0 0 0) to (8.7680956 6.30407 54.064244) with tilt (2.3895806 0 0)
  triclinic box = (0 0 0) to (8.7680956 6.30407 54.064244) with tilt (2.3895806 0 0)
echo none
run 0
WARNING: No fixes with time integration, atoms won't move (src/verlet.cpp:60)
Per MPI rank memory allocation (min/avg/max) = 8.717 | 8.717 | 8.717 Mbytes
    PotEng          Pxx           E_mol          E_coul    
-139.06698     -6267.0581      0              0            
Loop time of 1.301e-06 on 1 procs for 0 steps with 48 atoms

153.7% CPU use with 1 MPI tasks x 1 OpenMP threads

MPI task timing breakdown:
Section |  min time  |  avg time  |  max time  |%varavg| %total
---------------------------------------------------------------
Pair    | 0          | 0          | 0          |   0.0 |  0.00
Neigh   | 0          | 0          | 0          |   0.0 |  0.00
Comm    | 0          | 0          | 0          |   0.0 |  0.00
Output  | 0          | 0          | 0          |   0.0 |  0.00
Modify  | 0          | 0          | 0          |   0.0 |  0.00
Other   |            | 1.301e-06  |            |       |100.00

Nlocal:             48 ave          48 max          48 min
Histogram: 1 0 0 0 0 0 0 0 0 0
Nghost:            412 ave         412 max         412 min
Histogram: 1 0 0 0 0 0 0 0 0 0
Neighs:           1360 ave        1360 max        1360 min
Histogram: 1 0 0 0 0 0 0 0 0 0
FullNghs:         2720 ave        2720 max        2720 min
Histogram: 1 0 0 0 0 0 0 0 0 0

Total # of neighbors = 2720
Ave neighs/atom = 56.666667
Neighbor list builds = 0
Dangerous builds = 0
set atom * x 0.0 y 0.0 z 0.0
Setting atom values ...
  48 settings made for x
  48 settings made for y
  48 settings made for z
change_box all     x final 0 8.768095571747754 y final 0 6.30406998548646 z final 0 54.06424368497267      xy final 2.389580572880023 xz final 0.0 yz final 0.0 units box
Changing box ...
  triclinic box = (0 0 0) to (8.7680956 6.30407 54.064244) with tilt (2.3895806 0 0)
  triclinic box = (0 0 0) to (8.7680956 6.30407 54.064244) with tilt (2.3895806 0 0)
  triclinic box = (0 0 0) to (8.7680956 6.30407 54.064244) with tilt (2.3895806 0 0)
  triclinic box = (0 0 0) to (8.7680956 6.30407 54.064244) with tilt (2.3895806 0 0)
  triclinic box = (0 0 0) to (8.7680956 6.30407 54.064244) with tilt (2.3895806 0 0)
  triclinic box = (0 0 0) to (8.7680956 6.30407 54.064244) with tilt (2.3895806 0 0)
echo none
run 0
WARNING: No fixes with time integration, atoms won't move (src/verlet.cpp:60)
Per MPI rank memory allocation (min/avg/max) = 8.717 | 8.717 | 8.717 Mbytes
    PotEng          Pxx           E_mol          E_coul    
-139.07242     -6344.2384      0              0            
Loop time of 1.288e-06 on 1 procs for 0 steps with 48 atoms

155.3% CPU use with 1 MPI tasks x 1 OpenMP threads

MPI task timing breakdown:
Section |  min time  |  avg time  |  max time  |%varavg| %total
---------------------------------------------------------------
Pair    | 0          | 0          | 0          |   0.0 |  0.00
Neigh   | 0          | 0          | 0          |   0.0 |  0.00
Comm    | 0          | 0          | 0          |   0.0 |  0.00
Output  | 0          | 0          | 0          |   0.0 |  0.00
Modify  | 0          | 0          | 0          |   0.0 |  0.00
Other   |            | 1.288e-06  |            |       |100.00

Nlocal:             48 ave          48 max          48 min
Histogram: 1 0 0 0 0 0 0 0 0 0
Nghost:            412 ave         412 max         412 min
Histogram: 1 0 0 0 0 0 0 0 0 0
Neighs:           1360 ave        1360 max        1360 min
Histogram: 1 0 0 0 0 0 0 0 0 0
FullNghs:         2720 ave        2720 max        2720 min
Histogram: 1 0 0 0 0 0 0 0 0 0

Total # of neighbors = 2720
Ave neighs/atom = 56.666667
Neighbor list builds = 0
Dangerous builds = 0
set atom * x 0.0 y 0.0 z 0.0
Setting atom values ...
  48 settings made for x
  48 settings made for y
  48 settings made for z
change_box all     x final 0 8.768095571747754 y final 0 6.30406998548646 z final 0 54.06424368497267      xy final 2.389580572880023 xz final 0.0 yz final 0.0 units box
Changing box ...
  triclinic box = (0 0 0) to (8.7680956 6.30407 54.064244) with tilt (2.3895806 0 0)
  triclinic box = (0 0 0) to (8.7680956 6.30407 54.064244) with tilt (2.3895806 0 0)
  triclinic box = (0 0 0) to (8.7680956 6.30407 54.064244) with tilt (2.3895806 0 0)
  triclinic box = (0 0 0) to (8.7680956 6.30407 54.064244) with tilt (2.3895806 0 0)
  triclinic box = (0 0 0) to (8.7680956 6.30407 54.064244) with tilt (2.3895806 0 0)
  triclinic box = (0 0 0) to (8.7680956 6.30407 54.064244) with tilt (2.3895806 0 0)
echo none
run 0
WARNING: No fixes with time integration, atoms won't move (src/verlet.cpp:60)
Per MPI rank memory allocation (min/avg/max) = 8.717 | 8.717 | 8.717 Mbytes
    PotEng          Pxx           E_mol          E_coul    
-139.07891     -6525.2972      0              0            
Loop time of 1.955e-06 on 1 procs for 0 steps with 48 atoms

204.6% CPU use with 1 MPI tasks x 1 OpenMP threads

MPI task timing breakdown:
Section |  min time  |  avg time  |  max time  |%varavg| %total
---------------------------------------------------------------
Pair    | 0          | 0          | 0          |   0.0 |  0.00
Neigh   | 0          | 0          | 0          |   0.0 |  0.00
Comm    | 0          | 0          | 0          |   0.0 |  0.00
Output  | 0          | 0          | 0          |   0.0 |  0.00
Modify  | 0          | 0          | 0          |   0.0 |  0.00
Other   |            | 1.955e-06  |            |       |100.00

Nlocal:             48 ave          48 max          48 min
Histogram: 1 0 0 0 0 0 0 0 0 0
Nghost:            409 ave         409 max         409 min
Histogram: 1 0 0 0 0 0 0 0 0 0
Neighs:           1360 ave        1360 max        1360 min
Histogram: 1 0 0 0 0 0 0 0 0 0
FullNghs:         2720 ave        2720 max        2720 min
Histogram: 1 0 0 0 0 0 0 0 0 0

Total # of neighbors = 2720
Ave neighs/atom = 56.666667
Neighbor list builds = 0
Dangerous builds = 0
set atom * x 0.0 y 0.0 z 0.0
Setting atom values ...
  48 settings made for x
  48 settings made for y
  48 settings made for z
change_box all     x final 0 8.768095571747754 y final 0 6.30406998548646 z final 0 54.06424368497267      xy final 2.389580572880023 xz final 0.0 yz final 0.0 units box
Changing box ...
  triclinic box = (0 0 0) to (8.7680956 6.30407 54.064244) with tilt (2.3895806 0 0)
  triclinic box = (0 0 0) to (8.7680956 6.30407 54.064244) with tilt (2.3895806 0 0)
  triclinic box = (0 0 0) to (8.7680956 6.30407 54.064244) with tilt (2.3895806 0 0)
  triclinic box = (0 0 0) to (8.7680956 6.30407 54.064244) with tilt (2.3895806 0 0)
  triclinic box = (0 0 0) to (8.7680956 6.30407 54.064244) with tilt (2.3895806 0 0)
  triclinic box = (0 0 0) to (8.7680956 6.30407 54.064244) with tilt (2.3895806 0 0)
echo none
run 0
WARNING: No fixes with time integration, atoms won't move (src/verlet.cpp:60)
Per MPI rank memory allocation (min/avg/max) = 8.717 | 8.717 | 8.717 Mbytes
    PotEng          Pxx           E_mol          E_coul    
-139.08506     -6776.8009      0              0            
Loop time of 1.235e-06 on 1 procs for 0 steps with 48 atoms

242.9% CPU use with 1 MPI tasks x 1 OpenMP threads

MPI task timing breakdown:
Section |  min time  |  avg time  |  max time  |%varavg| %total
---------------------------------------------------------------
Pair    | 0          | 0          | 0          |   0.0 |  0.00
Neigh   | 0          | 0          | 0          |   0.0 |  0.00
Comm    | 0          | 0          | 0          |   0.0 |  0.00
Output  | 0          | 0          | 0          |   0.0 |  0.00
Modify  | 0          | 0          | 0          |   0.0 |  0.00
Other   |            | 1.235e-06  |            |       |100.00

Nlocal:             48 ave          48 max          48 min
Histogram: 1 0 0 0 0 0 0 0 0 0
Nghost:            409 ave         409 max         409 min
Histogram: 1 0 0 0 0 0 0 0 0 0
Neighs:           1360 ave        1360 max        1360 min
Histogram: 1 0 0 0 0 0 0 0 0 0
FullNghs:         2720 ave        2720 max        2720 min
Histogram: 1 0 0 0 0 0 0 0 0 0

Total # of neighbors = 2720
Ave neighs/atom = 56.666667
Neighbor list builds = 0
Dangerous builds = 0
set atom * x 0.0 y 0.0 z 0.0
Setting atom values ...
  48 settings made for x
  48 settings made for y
  48 settings made for z
change_box all     x final 0 8.768095571747754 y final 0 6.30406998548646 z final 0 54.06424368497267      xy final 2.389580572880023 xz final 0.0 yz final 0.0 units box
Changing box ...
  triclinic box = (0 0 0) to (8.7680956 6.30407 54.064244) with tilt (2.3895806 0 0)
  triclinic box = (0 0 0) to (8.7680956 6.30407 54.064244) with tilt (2.3895806 0 0)
  triclinic box = (0 0 0) to (8.7680956 6.30407 54.064244) with tilt (2.3895806 0 0)
  triclinic box = (0 0 0) to (8.7680956 6.30407 54.064244) with tilt (2.3895806 0 0)
  triclinic box = (0 0 0) to (8.7680956 6.30407 54.064244) with tilt (2.3895806 0 0)
  triclinic box = (0 0 0) to (8.7680956 6.30407 54.064244) with tilt (2.3895806 0 0)
echo none
run 0
WARNING: No fixes with time integration, atoms won't move (src/verlet.cpp:60)
Per MPI rank memory allocation (min/avg/max) = 8.717 | 8.717 | 8.717 Mbytes
    PotEng          Pxx           E_mol          E_coul    
-139.08923     -6978.991       0              0            
Loop time of 1.527e-06 on 1 procs for 0 steps with 48 atoms

131.0% CPU use with 1 MPI tasks x 1 OpenMP threads

MPI task timing breakdown:
Section |  min time  |  avg time  |  max time  |%varavg| %total
---------------------------------------------------------------
Pair    | 0          | 0          | 0          |   0.0 |  0.00
Neigh   | 0          | 0          | 0          |   0.0 |  0.00
Comm    | 0          | 0          | 0          |   0.0 |  0.00
Output  | 0          | 0          | 0          |   0.0 |  0.00
Modify  | 0          | 0          | 0          |   0.0 |  0.00
Other   |            | 1.527e-06  |            |       |100.00

Nlocal:             48 ave          48 max          48 min
Histogram: 1 0 0 0 0 0 0 0 0 0
Nghost:            412 ave         412 max         412 min
Histogram: 1 0 0 0 0 0 0 0 0 0
Neighs:           1360 ave        1360 max        1360 min
Histogram: 1 0 0 0 0 0 0 0 0 0
FullNghs:         2720 ave        2720 max        2720 min
Histogram: 1 0 0 0 0 0 0 0 0 0

Total # of neighbors = 2720
Ave neighs/atom = 56.666667
Neighbor list builds = 0
Dangerous builds = 0
set atom * x 0.0 y 0.0 z 0.0
Setting atom values ...
  48 settings made for x
  48 settings made for y
  48 settings made for z
change_box all     x final 0 8.768095571747754 y final 0 6.30406998548646 z final 0 54.06424368497267      xy final 2.389580572880023 xz final 0.0 yz final 0.0 units box
Changing box ...
  triclinic box = (0 0 0) to (8.7680956 6.30407 54.064244) with tilt (2.3895806 0 0)
  triclinic box = (0 0 0) to (8.7680956 6.30407 54.064244) with tilt (2.3895806 0 0)
  triclinic box = (0 0 0) to (8.7680956 6.30407 54.064244) with tilt (2.3895806 0 0)
  triclinic box = (0 0 0) to (8.7680956 6.30407 54.064244) with tilt (2.3895806 0 0)
  triclinic box = (0 0 0) to (8.7680956 6.30407 54.064244) with tilt (2.3895806 0 0)
  triclinic box = (0 0 0) to (8.7680956 6.30407 54.064244) with tilt (2.3895806 0 0)
echo none
run 0
WARNING: No fixes with time integration, atoms won't move (src/verlet.cpp:60)
Per MPI rank memory allocation (min/avg/max) = 8.717 | 8.717 | 8.717 Mbytes
    PotEng          Pxx           E_mol          E_coul    
-139.09161     -7079.0354      0              0            
Loop time of 1.667e-06 on 1 procs for 0 steps with 48 atoms

180.0% CPU use with 1 MPI tasks x 1 OpenMP threads

MPI task timing breakdown:
Section |  min time  |  avg time  |  max time  |%varavg| %total
---------------------------------------------------------------
Pair    | 0          | 0          | 0          |   0.0 |  0.00
Neigh   | 0          | 0          | 0          |   0.0 |  0.00
Comm    | 0          | 0          | 0          |   0.0 |  0.00
Output  | 0          | 0          | 0          |   0.0 |  0.00
Modify  | 0          | 0          | 0          |   0.0 |  0.00
Other   |            | 1.667e-06  |            |       |100.00

Nlocal:             48 ave          48 max          48 min
Histogram: 1 0 0 0 0 0 0 0 0 0
Nghost:            412 ave         412 max         412 min
Histogram: 1 0 0 0 0 0 0 0 0 0
Neighs:           1360 ave        1360 max        1360 min
Histogram: 1 0 0 0 0 0 0 0 0 0
FullNghs:         2720 ave        2720 max        2720 min
Histogram: 1 0 0 0 0 0 0 0 0 0

Total # of neighbors = 2720
Ave neighs/atom = 56.666667
Neighbor list builds = 0
Dangerous builds = 0
set atom * x 0.0 y 0.0 z 0.0
Setting atom values ...
  48 settings made for x
  48 settings made for y
  48 settings made for z
change_box all     x final 0 8.768095571747754 y final 0 6.30406998548646 z final 0 54.06424368497267      xy final 2.389580572880023 xz final 0.0 yz final 0.0 units box
Changing box ...
  triclinic box = (0 0 0) to (8.7680956 6.30407 54.064244) with tilt (2.3895806 0 0)
  triclinic box = (0 0 0) to (8.7680956 6.30407 54.064244) with tilt (2.3895806 0 0)
  triclinic box = (0 0 0) to (8.7680956 6.30407 54.064244) with tilt (2.3895806 0 0)
  triclinic box = (0 0 0) to (8.7680956 6.30407 54.064244) with tilt (2.3895806 0 0)
  triclinic box = (0 0 0) to (8.7680956 6.30407 54.064244) with tilt (2.3895806 0 0)
  triclinic box = (0 0 0) to (8.7680956 6.30407 54.064244) with tilt (2.3895806 0 0)
echo none
run 0
WARNING: No fixes with time integration, atoms won't move (src/verlet.cpp:60)
Per MPI rank memory allocation (min/avg/max) = 8.717 | 8.717 | 8.717 Mbytes
    PotEng          Pxx           E_mol          E_coul    
-139.09332     -7123.4858      0              0            
Loop time of 1.575e-06 on 1 procs for 0 steps with 48 atoms

127.0% CPU use with 1 MPI tasks x 1 OpenMP threads

MPI task timing breakdown:
Section |  min time  |  avg time  |  max time  |%varavg| %total
---------------------------------------------------------------
Pair    | 0          | 0          | 0          |   0.0 |  0.00
Neigh   | 0          | 0          | 0          |   0.0 |  0.00
Comm    | 0          | 0          | 0          |   0.0 |  0.00
Output  | 0          | 0          | 0          |   0.0 |  0.00
Modify  | 0          | 0          | 0          |   0.0 |  0.00
Other   |            | 1.575e-06  |            |       |100.00

Nlocal:             48 ave          48 max          48 min
Histogram: 1 0 0 0 0 0 0 0 0 0
Nghost:            412 ave         412 max         412 min
Histogram: 1 0 0 0 0 0 0 0 0 0
Neighs:           1360 ave        1360 max        1360 min
Histogram: 1 0 0 0 0 0 0 0 0 0
FullNghs:         2720 ave        2720 max        2720 min
Histogram: 1 0 0 0 0 0 0 0 0 0

Total # of neighbors = 2720
Ave neighs/atom = 56.666667
Neighbor list builds = 0
Dangerous builds = 0
set atom * x 0.0 y 0.0 z 0.0
Setting atom values ...
  48 settings made for x
  48 settings made for y
  48 settings made for z
change_box all     x final 0 8.768095571747754 y final 0 6.30406998548646 z final 0 54.06424368497267      xy final 2.389580572880023 xz final 0.0 yz final 0.0 units box
Changing box ...
  triclinic box = (0 0 0) to (8.7680956 6.30407 54.064244) with tilt (2.3895806 0 0)
  triclinic box = (0 0 0) to (8.7680956 6.30407 54.064244) with tilt (2.3895806 0 0)
  triclinic box = (0 0 0) to (8.7680956 6.30407 54.064244) with tilt (2.3895806 0 0)
  triclinic box = (0 0 0) to (8.7680956 6.30407 54.064244) with tilt (2.3895806 0 0)
  triclinic box = (0 0 0) to (8.7680956 6.30407 54.064244) with tilt (2.3895806 0 0)
  triclinic box = (0 0 0) to (8.7680956 6.30407 54.064244) with tilt (2.3895806 0 0)
echo none
run 0
WARNING: No fixes with time integration, atoms won't move (src/verlet.cpp:60)
Per MPI rank memory allocation (min/avg/max) = 8.717 | 8.717 | 8.717 Mbytes
    PotEng          Pxx           E_mol          E_coul    
-139.09499     -7157.6021      0              0            
Loop time of 1.588e-06 on 1 procs for 0 steps with 48 atoms

188.9% CPU use with 1 MPI tasks x 1 OpenMP threads

MPI task timing breakdown:
Section |  min time  |  avg time  |  max time  |%varavg| %total
---------------------------------------------------------------
Pair    | 0          | 0          | 0          |   0.0 |  0.00
Neigh   | 0          | 0          | 0          |   0.0 |  0.00
Comm    | 0          | 0          | 0          |   0.0 |  0.00
Output  | 0          | 0          | 0          |   0.0 |  0.00
Modify  | 0          | 0          | 0          |   0.0 |  0.00
Other   |            | 1.588e-06  |            |       |100.00

Nlocal:             48 ave          48 max          48 min
Histogram: 1 0 0 0 0 0 0 0 0 0
Nghost:            412 ave         412 max         412 min
Histogram: 1 0 0 0 0 0 0 0 0 0
Neighs:           1360 ave        1360 max        1360 min
Histogram: 1 0 0 0 0 0 0 0 0 0
FullNghs:         2720 ave        2720 max        2720 min
Histogram: 1 0 0 0 0 0 0 0 0 0

Total # of neighbors = 2720
Ave neighs/atom = 56.666667
Neighbor list builds = 0
Dangerous builds = 0
set atom * x 0.0 y 0.0 z 0.0
Setting atom values ...
  48 settings made for x
  48 settings made for y
  48 settings made for z
change_box all     x final 0 8.768095571747754 y final 0 6.30406998548646 z final 0 54.06424368497267      xy final 2.389580572880023 xz final 0.0 yz final 0.0 units box
Changing box ...
  triclinic box = (0 0 0) to (8.7680956 6.30407 54.064244) with tilt (2.3895806 0 0)
  triclinic box = (0 0 0) to (8.7680956 6.30407 54.064244) with tilt (2.3895806 0 0)
  triclinic box = (0 0 0) to (8.7680956 6.30407 54.064244) with tilt (2.3895806 0 0)
  triclinic box = (0 0 0) to (8.7680956 6.30407 54.064244) with tilt (2.3895806 0 0)
  triclinic box = (0 0 0) to (8.7680956 6.30407 54.064244) with tilt (2.3895806 0 0)
  triclinic box = (0 0 0) to (8.7680956 6.30407 54.064244) with tilt (2.3895806 0 0)
echo none
run 0
WARNING: No fixes with time integration, atoms won't move (src/verlet.cpp:60)
Per MPI rank memory allocation (min/avg/max) = 8.717 | 8.717 | 8.717 Mbytes
    PotEng          Pxx           E_mol          E_coul    
-139.09651     -7207.2294      0              0            
Loop time of 1.691e-06 on 1 procs for 0 steps with 48 atoms

177.4% CPU use with 1 MPI tasks x 1 OpenMP threads

MPI task timing breakdown:
Section |  min time  |  avg time  |  max time  |%varavg| %total
---------------------------------------------------------------
Pair    | 0          | 0          | 0          |   0.0 |  0.00
Neigh   | 0          | 0          | 0          |   0.0 |  0.00
Comm    | 0          | 0          | 0          |   0.0 |  0.00
Output  | 0          | 0          | 0          |   0.0 |  0.00
Modify  | 0          | 0          | 0          |   0.0 |  0.00
Other   |            | 1.691e-06  |            |       |100.00

Nlocal:             48 ave          48 max          48 min
Histogram: 1 0 0 0 0 0 0 0 0 0
Nghost:            412 ave         412 max         412 min
Histogram: 1 0 0 0 0 0 0 0 0 0
Neighs:           1360 ave        1360 max        1360 min
Histogram: 1 0 0 0 0 0 0 0 0 0
FullNghs:         2720 ave        2720 max        2720 min
Histogram: 1 0 0 0 0 0 0 0 0 0

Total # of neighbors = 2720
Ave neighs/atom = 56.666667
Neighbor list builds = 0
Dangerous builds = 0
set atom * x 0.0 y 0.0 z 0.0
Setting atom values ...
  48 settings made for x
  48 settings made for y
  48 settings made for z
change_box all     x final 0 8.768095571747754 y final 0 6.30406998548646 z final 0 54.06424368497267      xy final 2.389580572880023 xz final 0.0 yz final 0.0 units box
Changing box ...
  triclinic box = (0 0 0) to (8.7680956 6.30407 54.064244) with tilt (2.3895806 0 0)
  triclinic box = (0 0 0) to (8.7680956 6.30407 54.064244) with tilt (2.3895806 0 0)
  triclinic box = (0 0 0) to (8.7680956 6.30407 54.064244) with tilt (2.3895806 0 0)
  triclinic box = (0 0 0) to (8.7680956 6.30407 54.064244) with tilt (2.3895806 0 0)
  triclinic box = (0 0 0) to (8.7680956 6.30407 54.064244) with tilt (2.3895806 0 0)
  triclinic box = (0 0 0) to (8.7680956 6.30407 54.064244) with tilt (2.3895806 0 0)
echo none
run 0
WARNING: No fixes with time integration, atoms won't move (src/verlet.cpp:60)
Per MPI rank memory allocation (min/avg/max) = 8.717 | 8.717 | 8.717 Mbytes
    PotEng          Pxx           E_mol          E_coul    
-139.09786     -7295.3262      0              0            
Loop time of 1.45e-06 on 1 procs for 0 steps with 48 atoms

275.9% CPU use with 1 MPI tasks x 1 OpenMP threads

MPI task timing breakdown:
Section |  min time  |  avg time  |  max time  |%varavg| %total
---------------------------------------------------------------
Pair    | 0          | 0          | 0          |   0.0 |  0.00
Neigh   | 0          | 0          | 0          |   0.0 |  0.00
Comm    | 0          | 0          | 0          |   0.0 |  0.00
Output  | 0          | 0          | 0          |   0.0 |  0.00
Modify  | 0          | 0          | 0          |   0.0 |  0.00
Other   |            | 1.45e-06   |            |       |100.00

Nlocal:             48 ave          48 max          48 min
Histogram: 1 0 0 0 0 0 0 0 0 0
Nghost:            412 ave         412 max         412 min
Histogram: 1 0 0 0 0 0 0 0 0 0
Neighs:           1360 ave        1360 max        1360 min
Histogram: 1 0 0 0 0 0 0 0 0 0
FullNghs:         2720 ave        2720 max        2720 min
Histogram: 1 0 0 0 0 0 0 0 0 0

Total # of neighbors = 2720
Ave neighs/atom = 56.666667
Neighbor list builds = 0
Dangerous builds = 0
set atom * x 0.0 y 0.0 z 0.0
Setting atom values ...
  48 settings made for x
  48 settings made for y
  48 settings made for z
change_box all     x final 0 8.768095571747754 y final 0 6.30406998548646 z final 0 54.06424368497267      xy final 2.389580572880023 xz final 0.0 yz final 0.0 units box
Changing box ...
  triclinic box = (0 0 0) to (8.7680956 6.30407 54.064244) with tilt (2.3895806 0 0)
  triclinic box = (0 0 0) to (8.7680956 6.30407 54.064244) with tilt (2.3895806 0 0)
  triclinic box = (0 0 0) to (8.7680956 6.30407 54.064244) with tilt (2.3895806 0 0)
  triclinic box = (0 0 0) to (8.7680956 6.30407 54.064244) with tilt (2.3895806 0 0)
  triclinic box = (0 0 0) to (8.7680956 6.30407 54.064244) with tilt (2.3895806 0 0)
  triclinic box = (0 0 0) to (8.7680956 6.30407 54.064244) with tilt (2.3895806 0 0)
echo none
run 0
WARNING: No fixes with time integration, atoms won't move (src/verlet.cpp:60)
Per MPI rank memory allocation (min/avg/max) = 8.717 | 8.717 | 8.717 Mbytes
    PotEng          Pxx           E_mol          E_coul    
-139.0993      -7446.3212      0              0            
Loop time of 1.076e-06 on 1 procs for 0 steps with 48 atoms

278.8% CPU use with 1 MPI tasks x 1 OpenMP threads

MPI task timing breakdown:
Section |  min time  |  avg time  |  max time  |%varavg| %total
---------------------------------------------------------------
Pair    | 0          | 0          | 0          |   0.0 |  0.00
Neigh   | 0          | 0          | 0          |   0.0 |  0.00
Comm    | 0          | 0          | 0          |   0.0 |  0.00
Output  | 0          | 0          | 0          |   0.0 |  0.00
Modify  | 0          | 0          | 0          |   0.0 |  0.00
Other   |            | 1.076e-06  |            |       |100.00

Nlocal:             48 ave          48 max          48 min
Histogram: 1 0 0 0 0 0 0 0 0 0
Nghost:            412 ave         412 max         412 min
Histogram: 1 0 0 0 0 0 0 0 0 0
Neighs:           1360 ave        1360 max        1360 min
Histogram: 1 0 0 0 0 0 0 0 0 0
FullNghs:         2720 ave        2720 max        2720 min
Histogram: 1 0 0 0 0 0 0 0 0 0

Total # of neighbors = 2720
Ave neighs/atom = 56.666667
Neighbor list builds = 0
Dangerous builds = 0
set atom * x 0.0 y 0.0 z 0.0
Setting atom values ...
  48 settings made for x
  48 settings made for y
  48 settings made for z
change_box all     x final 0 8.768095571747754 y final 0 6.30406998548646 z final 0 54.06424368497267      xy final 2.389580572880023 xz final 0.0 yz final 0.0 units box
Changing box ...
  triclinic box = (0 0 0) to (8.7680956 6.30407 54.064244) with tilt (2.3895806 0 0)
  triclinic box = (0 0 0) to (8.7680956 6.30407 54.064244) with tilt (2.3895806 0 0)
  triclinic box = (0 0 0) to (8.7680956 6.30407 54.064244) with tilt (2.3895806 0 0)
  triclinic box = (0 0 0) to (8.7680956 6.30407 54.064244) with tilt (2.3895806 0 0)
  triclinic box = (0 0 0) to (8.7680956 6.30407 54.064244) with tilt (2.3895806 0 0)
  triclinic box = (0 0 0) to (8.7680956 6.30407 54.064244) with tilt (2.3895806 0 0)
echo none
run 0
WARNING: No fixes with time integration, atoms won't move (src/verlet.cpp:60)
Per MPI rank memory allocation (min/avg/max) = 8.717 | 8.717 | 8.717 Mbytes
    PotEng          Pxx           E_mol          E_coul    
-139.10102     -7686.401       0              0            
Loop time of 1.006e-06 on 1 procs for 0 steps with 48 atoms

198.8% CPU use with 1 MPI tasks x 1 OpenMP threads

MPI task timing breakdown:
Section |  min time  |  avg time  |  max time  |%varavg| %total
---------------------------------------------------------------
Pair    | 0          | 0          | 0          |   0.0 |  0.00
Neigh   | 0          | 0          | 0          |   0.0 |  0.00
Comm    | 0          | 0          | 0          |   0.0 |  0.00
Output  | 0          | 0          | 0          |   0.0 |  0.00
Modify  | 0          | 0          | 0          |   0.0 |  0.00
Other   |            | 1.006e-06  |            |       |100.00

Nlocal:             48 ave          48 max          48 min
Histogram: 1 0 0 0 0 0 0 0 0 0
Nghost:            412 ave         412 max         412 min
Histogram: 1 0 0 0 0 0 0 0 0 0
Neighs:           1360 ave        1360 max        1360 min
Histogram: 1 0 0 0 0 0 0 0 0 0
FullNghs:         2720 ave        2720 max        2720 min
Histogram: 1 0 0 0 0 0 0 0 0 0

Total # of neighbors = 2720
Ave neighs/atom = 56.666667
Neighbor list builds = 0
Dangerous builds = 0
set atom * x 0.0 y 0.0 z 0.0
Setting atom values ...
  48 settings made for x
  48 settings made for y
  48 settings made for z
change_box all     x final 0 8.768095571747754 y final 0 6.30406998548646 z final 0 54.06424368497267      xy final 2.389580572880023 xz final 0.0 yz final 0.0 units box
Changing box ...
  triclinic box = (0 0 0) to (8.7680956 6.30407 54.064244) with tilt (2.3895806 0 0)
  triclinic box = (0 0 0) to (8.7680956 6.30407 54.064244) with tilt (2.3895806 0 0)
  triclinic box = (0 0 0) to (8.7680956 6.30407 54.064244) with tilt (2.3895806 0 0)
  triclinic box = (0 0 0) to (8.7680956 6.30407 54.064244) with tilt (2.3895806 0 0)
  triclinic box = (0 0 0) to (8.7680956 6.30407 54.064244) with tilt (2.3895806 0 0)
  triclinic box = (0 0 0) to (8.7680956 6.30407 54.064244) with tilt (2.3895806 0 0)
echo none
run 0
WARNING: No fixes with time integration, atoms won't move (src/verlet.cpp:60)
[...]
Output  | 0          | 0          | 0          |   0.0 |  0.00
Modify  | 0          | 0          | 0          |   0.0 |  0.00
Other   |            | 1.015e-06  |            |       |100.00

Nlocal:             48 ave          48 max          48 min
Histogram: 1 0 0 0 0 0 0 0 0 0
Nghost:            419 ave         419 max         419 min
Histogram: 1 0 0 0 0 0 0 0 0 0
Neighs:           1340 ave        1340 max        1340 min
Histogram: 1 0 0 0 0 0 0 0 0 0
FullNghs:         2680 ave        2680 max        2680 min
Histogram: 1 0 0 0 0 0 0 0 0 0

Total # of neighbors = 2680
Ave neighs/atom = 55.833333
Neighbor list builds = 0
Dangerous builds = 0
set atom * x 0.0 y 0.0 z 0.0
Setting atom values ...
  48 settings made for x
  48 settings made for y
  48 settings made for z
change_box all     x final 0 8.768095571747754 y final 0 6.30406998548646 z final 0 54.06424368497267      xy final 2.389580572880023 xz final 0.0 yz final 0.0 units box
Changing box ...
  triclinic box = (0 0 0) to (8.7680956 6.30407 54.064244) with tilt (2.3895806 0 0)
  triclinic box = (0 0 0) to (8.7680956 6.30407 54.064244) with tilt (2.3895806 0 0)
  triclinic box = (0 0 0) to (8.7680956 6.30407 54.064244) with tilt (2.3895806 0 0)
  triclinic box = (0 0 0) to (8.7680956 6.30407 54.064244) with tilt (2.3895806 0 0)
  triclinic box = (0 0 0) to (8.7680956 6.30407 54.064244) with tilt (2.3895806 0 0)
  triclinic box = (0 0 0) to (8.7680956 6.30407 54.064244) with tilt (2.3895806 0 0)
echo none
run 0
Per MPI rank memory allocation (min/avg/max) = 8.717 | 8.717 | 8.717 Mbytes
    PotEng          Pxx           E_mol          E_coul    
-139.90764     -8406.8694      0              0            
Loop time of 9.39e-07 on 1 procs for 0 steps with 48 atoms

213.0% CPU use with 1 MPI tasks x 1 OpenMP threads

MPI task timing breakdown:
Section |  min time  |  avg time  |  max time  |%varavg| %total
---------------------------------------------------------------
Pair    | 0          | 0          | 0          |   0.0 |  0.00
Neigh   | 0          | 0          | 0          |   0.0 |  0.00
Comm    | 0          | 0          | 0          |   0.0 |  0.00
Output  | 0          | 0          | 0          |   0.0 |  0.00
Modify  | 0          | 0          | 0          |   0.0 |  0.00
Other   |            | 9.39e-07   |            |       |100.00

Nlocal:             48 ave          48 max          48 min
Histogram: 1 0 0 0 0 0 0 0 0 0
Nghost:            419 ave         419 max         419 min
Histogram: 1 0 0 0 0 0 0 0 0 0
Neighs:           1340 ave        1340 max        1340 min
Histogram: 1 0 0 0 0 0 0 0 0 0
FullNghs:         2680 ave        2680 max        2680 min
Histogram: 1 0 0 0 0 0 0 0 0 0

Total # of neighbors = 2680
Ave neighs/atom = 55.833333
Neighbor list builds = 0
Dangerous builds = 0
set atom * x 0.0 y 0.0 z 0.0
Setting atom values ...
  48 settings made for x
  48 settings made for y
  48 settings made for z
change_box all     x final 0 8.768095571747754 y final 0 6.30406998548646 z final 0 54.06424368497267      xy final 2.389580572880023 xz final 0.0 yz final 0.0 units box
Changing box ...
  triclinic box = (0 0 0) to (8.7680956 6.30407 54.064244) with tilt (2.3895806 0 0)
  triclinic box = (0 0 0) to (8.7680956 6.30407 54.064244) with tilt (2.3895806 0 0)
  triclinic box = (0 0 0) to (8.7680956 6.30407 54.064244) with tilt (2.3895806 0 0)
  triclinic box = (0 0 0) to (8.7680956 6.30407 54.064244) with tilt (2.3895806 0 0)
  triclinic box = (0 0 0) to (8.7680956 6.30407 54.064244) with tilt (2.3895806 0 0)
  triclinic box = (0 0 0) to (8.7680956 6.30407 54.064244) with tilt (2.3895806 0 0)
echo none
run 0
Per MPI rank memory allocation (min/avg/max) = 8.717 | 8.717 | 8.717 Mbytes
    PotEng          Pxx           E_mol          E_coul    
-139.90782     -8404.4288      0              0            
Loop time of 8.99e-07 on 1 procs for 0 steps with 48 atoms

111.2% CPU use with 1 MPI tasks x 1 OpenMP threads

MPI task timing breakdown:
Section |  min time  |  avg time  |  max time  |%varavg| %total
---------------------------------------------------------------
Pair    | 0          | 0          | 0          |   0.0 |  0.00
Neigh   | 0          | 0          | 0          |   0.0 |  0.00
Comm    | 0          | 0          | 0          |   0.0 |  0.00
Output  | 0          | 0          | 0          |   0.0 |  0.00
Modify  | 0          | 0          | 0          |   0.0 |  0.00
Other   |            | 8.99e-07   |            |       |100.00

Nlocal:             48 ave          48 max          48 min
Histogram: 1 0 0 0 0 0 0 0 0 0
Nghost:            419 ave         419 max         419 min
Histogram: 1 0 0 0 0 0 0 0 0 0
Neighs:           1340 ave        1340 max        1340 min
Histogram: 1 0 0 0 0 0 0 0 0 0
FullNghs:         2680 ave        2680 max        2680 min
Histogram: 1 0 0 0 0 0 0 0 0 0

Total # of neighbors = 2680
Ave neighs/atom = 55.833333
Neighbor list builds = 0
Dangerous builds = 0
set atom * x 0.0 y 0.0 z 0.0
Setting atom values ...
  48 settings made for x
  48 settings made for y
  48 settings made for z
change_box all     x final 0 8.768095571747754 y final 0 6.30406998548646 z final 0 54.06424368497267      xy final 2.389580572880023 xz final 0.0 yz final 0.0 units box
Changing box ...
  triclinic box = (0 0 0) to (8.7680956 6.30407 54.064244) with tilt (2.3895806 0 0)
  triclinic box = (0 0 0) to (8.7680956 6.30407 54.064244) with tilt (2.3895806 0 0)
  triclinic box = (0 0 0) to (8.7680956 6.30407 54.064244) with tilt (2.3895806 0 0)
  triclinic box = (0 0 0) to (8.7680956 6.30407 54.064244) with tilt (2.3895806 0 0)
  triclinic box = (0 0 0) to (8.7680956 6.30407 54.064244) with tilt (2.3895806 0 0)
  triclinic box = (0 0 0) to (8.7680956 6.30407 54.064244) with tilt (2.3895806 0 0)
echo none
run 0
Per MPI rank memory allocation (min/avg/max) = 8.717 | 8.717 | 8.717 Mbytes
    PotEng          Pxx           E_mol          E_coul    
-139.90801     -8391.0634      0              0            
Loop time of 9.1e-07 on 1 procs for 0 steps with 48 atoms

219.8% CPU use with 1 MPI tasks x 1 OpenMP threads

MPI task timing breakdown:
Section |  min time  |  avg time  |  max time  |%varavg| %total
---------------------------------------------------------------
Pair    | 0          | 0          | 0          |   0.0 |  0.00
Neigh   | 0          | 0          | 0          |   0.0 |  0.00
Comm    | 0          | 0          | 0          |   0.0 |  0.00
Output  | 0          | 0          | 0          |   0.0 |  0.00
Modify  | 0          | 0          | 0          |   0.0 |  0.00
Other   |            | 9.1e-07    |            |       |100.00

Nlocal:             48 ave          48 max          48 min
Histogram: 1 0 0 0 0 0 0 0 0 0
Nghost:            419 ave         419 max         419 min
Histogram: 1 0 0 0 0 0 0 0 0 0
Neighs:           1340 ave        1340 max        1340 min
Histogram: 1 0 0 0 0 0 0 0 0 0
FullNghs:         2680 ave        2680 max        2680 min
Histogram: 1 0 0 0 0 0 0 0 0 0

Total # of neighbors = 2680
Ave neighs/atom = 55.833333
Neighbor list builds = 0
Dangerous builds = 0
set atom * x 0.0 y 0.0 z 0.0
Setting atom values ...
  48 settings made for x
  48 settings made for y
  48 settings made for z
change_box all     x final 0 8.768095571747754 y final 0 6.30406998548646 z final 0 54.06424368497267      xy final 2.389580572880023 xz final 0.0 yz final 0.0 units box
Changing box ...
  triclinic box = (0 0 0) to (8.7680956 6.30407 54.064244) with tilt (2.3895806 0 0)
  triclinic box = (0 0 0) to (8.7680956 6.30407 54.064244) with tilt (2.3895806 0 0)
  triclinic box = (0 0 0) to (8.7680956 6.30407 54.064244) with tilt (2.3895806 0 0)
  triclinic box = (0 0 0) to (8.7680956 6.30407 54.064244) with tilt (2.3895806 0 0)
  triclinic box = (0 0 0) to (8.7680956 6.30407 54.064244) with tilt (2.3895806 0 0)
  triclinic box = (0 0 0) to (8.7680956 6.30407 54.064244) with tilt (2.3895806 0 0)
echo none
run 0
Per MPI rank memory allocation (min/avg/max) = 8.717 | 8.717 | 8.717 Mbytes
    PotEng          Pxx           E_mol          E_coul    
-139.90819     -8366.5732      0              0            
Loop time of 8.59e-07 on 1 procs for 0 steps with 48 atoms

349.2% CPU use with 1 MPI tasks x 1 OpenMP threads

MPI task timing breakdown:
Section |  min time  |  avg time  |  max time  |%varavg| %total
---------------------------------------------------------------
Pair    | 0          | 0          | 0          |   0.0 |  0.00
Neigh   | 0          | 0          | 0          |   0.0 |  0.00
Comm    | 0          | 0          | 0          |   0.0 |  0.00
Output  | 0          | 0          | 0          |   0.0 |  0.00
Modify  | 0          | 0          | 0          |   0.0 |  0.00
Other   |            | 8.59e-07   |            |       |100.00

Nlocal:             48 ave          48 max          48 min
Histogram: 1 0 0 0 0 0 0 0 0 0
Nghost:            419 ave         419 max         419 min
Histogram: 1 0 0 0 0 0 0 0 0 0
Neighs:           1340 ave        1340 max        1340 min
Histogram: 1 0 0 0 0 0 0 0 0 0
FullNghs:         2680 ave        2680 max        2680 min
Histogram: 1 0 0 0 0 0 0 0 0 0

Total # of neighbors = 2680
Ave neighs/atom = 55.833333
Neighbor list builds = 0
Dangerous builds = 0
set atom * x 0.0 y 0.0 z 0.0
Setting atom values ...
  48 settings made for x
  48 settings made for y
  48 settings made for z
change_box all     x final 0 8.768095571747754 y final 0 6.30406998548646 z final 0 54.06424368497267      xy final 2.389580572880023 xz final 0.0 yz final 0.0 units box
Changing box ...
  triclinic box = (0 0 0) to (8.7680956 6.30407 54.064244) with tilt (2.3895806 0 0)
  triclinic box = (0 0 0) to (8.7680956 6.30407 54.064244) with tilt (2.3895806 0 0)
  triclinic box = (0 0 0) to (8.7680956 6.30407 54.064244) with tilt (2.3895806 0 0)
  triclinic box = (0 0 0) to (8.7680956 6.30407 54.064244) with tilt (2.3895806 0 0)
  triclinic box = (0 0 0) to (8.7680956 6.30407 54.064244) with tilt (2.3895806 0 0)
  triclinic box = (0 0 0) to (8.7680956 6.30407 54.064244) with tilt (2.3895806 0 0)
echo none
run 0
Per MPI rank memory allocation (min/avg/max) = 8.717 | 8.717 | 8.717 Mbytes
    PotEng          Pxx           E_mol          E_coul    
-139.90839     -8334.8856      0              0            
Loop time of 9.03e-07 on 1 procs for 0 steps with 48 atoms

221.5% CPU use with 1 MPI tasks x 1 OpenMP threads

MPI task timing breakdown:
Section |  min time  |  avg time  |  max time  |%varavg| %total
---------------------------------------------------------------
Pair    | 0          | 0          | 0          |   0.0 |  0.00
Neigh   | 0          | 0          | 0          |   0.0 |  0.00
Comm    | 0          | 0          | 0          |   0.0 |  0.00
Output  | 0          | 0          | 0          |   0.0 |  0.00
Modify  | 0          | 0          | 0          |   0.0 |  0.00
Other   |            | 9.03e-07   |            |       |100.00

Nlocal:             48 ave          48 max          48 min
Histogram: 1 0 0 0 0 0 0 0 0 0
Nghost:            416 ave         416 max         416 min
Histogram: 1 0 0 0 0 0 0 0 0 0
Neighs:           1340 ave        1340 max        1340 min
Histogram: 1 0 0 0 0 0 0 0 0 0
FullNghs:         2680 ave        2680 max        2680 min
Histogram: 1 0 0 0 0 0 0 0 0 0

Total # of neighbors = 2680
Ave neighs/atom = 55.833333
Neighbor list builds = 0
Dangerous builds = 0
set atom * x 0.0 y 0.0 z 0.0
Setting atom values ...
  48 settings made for x
  48 settings made for y
  48 settings made for z
change_box all     x final 0 8.768095571747754 y final 0 6.30406998548646 z final 0 54.06424368497267      xy final 2.389580572880023 xz final 0.0 yz final 0.0 units box
Changing box ...
  triclinic box = (0 0 0) to (8.7680956 6.30407 54.064244) with tilt (2.3895806 0 0)
  triclinic box = (0 0 0) to (8.7680956 6.30407 54.064244) with tilt (2.3895806 0 0)
  triclinic box = (0 0 0) to (8.7680956 6.30407 54.064244) with tilt (2.3895806 0 0)
  triclinic box = (0 0 0) to (8.7680956 6.30407 54.064244) with tilt (2.3895806 0 0)
  triclinic box = (0 0 0) to (8.7680956 6.30407 54.064244) with tilt (2.3895806 0 0)
  triclinic box = (0 0 0) to (8.7680956 6.30407 54.064244) with tilt (2.3895806 0 0)
echo none
run 0
Per MPI rank memory allocation (min/avg/max) = 8.717 | 8.717 | 8.717 Mbytes
    PotEng          Pxx           E_mol          E_coul    
-139.90858     -8305.2457      0              0            
Loop time of 8.9e-07 on 1 procs for 0 steps with 48 atoms

224.7% CPU use with 1 MPI tasks x 1 OpenMP threads

MPI task timing breakdown:
Section |  min time  |  avg time  |  max time  |%varavg| %total
---------------------------------------------------------------
Pair    | 0          | 0          | 0          |   0.0 |  0.00
Neigh   | 0          | 0          | 0          |   0.0 |  0.00
Comm    | 0          | 0          | 0          |   0.0 |  0.00
Output  | 0          | 0          | 0          |   0.0 |  0.00
Modify  | 0          | 0          | 0          |   0.0 |  0.00
Other   |            | 8.9e-07    |            |       |100.00

Nlocal:             48 ave          48 max          48 min
Histogram: 1 0 0 0 0 0 0 0 0 0
Nghost:            416 ave         416 max         416 min
Histogram: 1 0 0 0 0 0 0 0 0 0
Neighs:           1340 ave        1340 max        1340 min
Histogram: 1 0 0 0 0 0 0 0 0 0
FullNghs:         2680 ave        2680 max        2680 min
Histogram: 1 0 0 0 0 0 0 0 0 0

Total # of neighbors = 2680
Ave neighs/atom = 55.833333
Neighbor list builds = 0
Dangerous builds = 0
set atom * x 0.0 y 0.0 z 0.0
Setting atom values ...
  48 settings made for x
  48 settings made for y
  48 settings made for z
change_box all     x final 0 8.768095571747754 y final 0 6.30406998548646 z final 0 54.06424368497267      xy final 2.389580572880023 xz final 0.0 yz final 0.0 units box
Changing box ...
  triclinic box = (0 0 0) to (8.7680956 6.30407 54.064244) with tilt (2.3895806 0 0)
  triclinic box = (0 0 0) to (8.7680956 6.30407 54.064244) with tilt (2.3895806 0 0)
  triclinic box = (0 0 0) to (8.7680956 6.30407 54.064244) with tilt (2.3895806 0 0)
  triclinic box = (0 0 0) to (8.7680956 6.30407 54.064244) with tilt (2.3895806 0 0)
  triclinic box = (0 0 0) to (8.7680956 6.30407 54.064244) with tilt (2.3895806 0 0)
  triclinic box = (0 0 0) to (8.7680956 6.30407 54.064244) with tilt (2.3895806 0 0)
echo none
run 0
Per MPI rank memory allocation (min/avg/max) = 8.717 | 8.717 | 8.717 Mbytes
    PotEng          Pxx           E_mol          E_coul    
-139.90873     -8288.645       0              0            
Loop time of 9.1e-07 on 1 procs for 0 steps with 48 atoms

219.8% CPU use with 1 MPI tasks x 1 OpenMP threads

MPI task timing breakdown:
Section |  min time  |  avg time  |  max time  |%varavg| %total
---------------------------------------------------------------
Pair    | 0          | 0          | 0          |   0.0 |  0.00
Neigh   | 0          | 0          | 0          |   0.0 |  0.00
Comm    | 0          | 0          | 0          |   0.0 |  0.00
Output  | 0          | 0          | 0          |   0.0 |  0.00
Modify  | 0          | 0          | 0          |   0.0 |  0.00
Other   |            | 9.1e-07    |            |       |100.00

Nlocal:             48 ave          48 max          48 min
Histogram: 1 0 0 0 0 0 0 0 0 0
Nghost:            416 ave         416 max         416 min
Histogram: 1 0 0 0 0 0 0 0 0 0
Neighs:           1340 ave        1340 max        1340 min
Histogram: 1 0 0 0 0 0 0 0 0 0
FullNghs:         2680 ave        2680 max        2680 min
Histogram: 1 0 0 0 0 0 0 0 0 0

Total # of neighbors = 2680
Ave neighs/atom = 55.833333
Neighbor list builds = 0
Dangerous builds = 0
set atom * x 0.0 y 0.0 z 0.0
Setting atom values ...
  48 settings made for x
  48 settings made for y
  48 settings made for z
change_box all     x final 0 8.768095571747754 y final 0 6.30406998548646 z final 0 54.06424368497267      xy final 2.389580572880023 xz final 0.0 yz final 0.0 units box
Changing box ...
  triclinic box = (0 0 0) to (8.7680956 6.30407 54.064244) with tilt (2.3895806 0 0)
  triclinic box = (0 0 0) to (8.7680956 6.30407 54.064244) with tilt (2.3895806 0 0)
  triclinic box = (0 0 0) to (8.7680956 6.30407 54.064244) with tilt (2.3895806 0 0)
  triclinic box = (0 0 0) to (8.7680956 6.30407 54.064244) with tilt (2.3895806 0 0)
  triclinic box = (0 0 0) to (8.7680956 6.30407 54.064244) with tilt (2.3895806 0 0)
  triclinic box = (0 0 0) to (8.7680956 6.30407 54.064244) with tilt (2.3895806 0 0)
echo none
run 0
Per MPI rank memory allocation (min/avg/max) = 8.717 | 8.717 | 8.717 Mbytes
    PotEng          Pxx           E_mol          E_coul    
-139.90883     -8286.9362      0              0            
Loop time of 8.35e-07 on 1 procs for 0 steps with 48 atoms

239.5% CPU use with 1 MPI tasks x 1 OpenMP threads

MPI task timing breakdown:
Section |  min time  |  avg time  |  max time  |%varavg| %total
---------------------------------------------------------------
Pair    | 0          | 0          | 0          |   0.0 |  0.00
Neigh   | 0          | 0          | 0          |   0.0 |  0.00
Comm    | 0          | 0          | 0          |   0.0 |  0.00
Output  | 0          | 0          | 0          |   0.0 |  0.00
Modify  | 0          | 0          | 0          |   0.0 |  0.00
Other   |            | 8.35e-07   |            |       |100.00

Nlocal:             48 ave          48 max          48 min
Histogram: 1 0 0 0 0 0 0 0 0 0
Nghost:            416 ave         416 max         416 min
Histogram: 1 0 0 0 0 0 0 0 0 0
Neighs:           1340 ave        1340 max        1340 min
Histogram: 1 0 0 0 0 0 0 0 0 0
FullNghs:         2680 ave        2680 max        2680 min
Histogram: 1 0 0 0 0 0 0 0 0 0

Total # of neighbors = 2680
Ave neighs/atom = 55.833333
Neighbor list builds = 0
Dangerous builds = 0
set atom * x 0.0 y 0.0 z 0.0
Setting atom values ...
  48 settings made for x
  48 settings made for y
  48 settings made for z
change_box all     x final 0 8.768095571747754 y final 0 6.30406998548646 z final 0 54.06424368497267      xy final 2.389580572880023 xz final 0.0 yz final 0.0 units box
Changing box ...
  triclinic box = (0 0 0) to (8.7680956 6.30407 54.064244) with tilt (2.3895806 0 0)
  triclinic box = (0 0 0) to (8.7680956 6.30407 54.064244) with tilt (2.3895806 0 0)
  triclinic box = (0 0 0) to (8.7680956 6.30407 54.064244) with tilt (2.3895806 0 0)
  triclinic box = (0 0 0) to (8.7680956 6.30407 54.064244) with tilt (2.3895806 0 0)
  triclinic box = (0 0 0) to (8.7680956 6.30407 54.064244) with tilt (2.3895806 0 0)
  triclinic box = (0 0 0) to (8.7680956 6.30407 54.064244) with tilt (2.3895806 0 0)
echo none
run 0
Per MPI rank memory allocation (min/avg/max) = 8.717 | 8.717 | 8.717 Mbytes
    PotEng          Pxx           E_mol          E_coul    
-139.9089      -8293.1405      0              0            
Loop time of 8.66e-07 on 1 procs for 0 steps with 48 atoms

230.9% CPU use with 1 MPI tasks x 1 OpenMP threads

MPI task timing breakdown:
Section |  min time  |  avg time  |  max time  |%varavg| %total
---------------------------------------------------------------
Pair    | 0          | 0          | 0          |   0.0 |  0.00
Neigh   | 0          | 0          | 0          |   0.0 |  0.00
Comm    | 0          | 0          | 0          |   0.0 |  0.00
Output  | 0          | 0          | 0          |   0.0 |  0.00
Modify  | 0          | 0          | 0          |   0.0 |  0.00
Other   |            | 8.66e-07   |            |       |100.00

Nlocal:             48 ave          48 max          48 min
Histogram: 1 0 0 0 0 0 0 0 0 0
Nghost:            416 ave         416 max         416 min
Histogram: 1 0 0 0 0 0 0 0 0 0
Neighs:           1340 ave        1340 max        1340 min
Histogram: 1 0 0 0 0 0 0 0 0 0
FullNghs:         2680 ave        2680 max        2680 min
Histogram: 1 0 0 0 0 0 0 0 0 0

Total # of neighbors = 2680
Ave neighs/atom = 55.833333
Neighbor list builds = 0
Dangerous builds = 0
Total wall time: 0:00:01
