LAMMPS (29 Aug 2024)
OMP_NUM_THREADS environment is not set. Defaulting to 1 thread. (src/comm.cpp:98)
  using 1 OpenMP thread(s) per MPI task
units metal
atom_style atomic
atom_modify map array sort 0 0
boundary p p p
box tilt large

The 'box' command has been removed and will be ignored

region cell prism    0 6.7417648799254986 0 5.91399681065986 0 61.94173373669642     3.138414869177541e-17 0.0 0.0     units box
create_box 1 cell
Created triclinic box = (0 0 0) to (6.7417649 5.9139968 61.941734) with tilt (3.1384149e-17 0 0)
  1 by 1 by 1 MPI processor grid
echo none
Created 48 atoms
  using lattice units in triclinic box = (0 0 0) to (6.7417649 5.9139968 61.941734) with tilt (3.1384149e-17 0 0)
  create_atoms CPU = 0.000 seconds
Setting atom values ...
  1 settings made for type
Setting atom values ...
  1 settings made for type
Setting atom values ...
  1 settings made for type
Setting atom values ...
  1 settings made for type
Setting atom values ...
  1 settings made for type
Setting atom values ...
  1 settings made for type
Setting atom values ...
  1 settings made for type
Setting atom values ...
  1 settings made for type
Setting atom values ...
  1 settings made for type
Setting atom values ...
  1 settings made for type
Setting atom values ...
  1 settings made for type
Setting atom values ...
  1 settings made for type
Setting atom values ...
  1 settings made for type
Setting atom values ...
  1 settings made for type
Setting atom values ...
  1 settings made for type
Setting atom values ...
  1 settings made for type
Setting atom values ...
  1 settings made for type
Setting atom values ...
  1 settings made for type
Setting atom values ...
  1 settings made for type
Setting atom values ...
  1 settings made for type
Setting atom values ...
  1 settings made for type
Setting atom values ...
  1 settings made for type
Setting atom values ...
  1 settings made for type
Setting atom values ...
  1 settings made for type
Setting atom values ...
  1 settings made for type
Setting atom values ...
  1 settings made for type
Setting atom values ...
  1 settings made for type
Setting atom values ...
  1 settings made for type
Setting atom values ...
  1 settings made for type
Setting atom values ...
  1 settings made for type
Setting atom values ...
  1 settings made for type
Setting atom values ...
  1 settings made for type
Setting atom values ...
  1 settings made for type
Setting atom values ...
  1 settings made for type
Setting atom values ...
  1 settings made for type
Setting atom values ...
  1 settings made for type
Setting atom values ...
  1 settings made for type
Setting atom values ...
  1 settings made for type
Setting atom values ...
  1 settings made for type
Setting atom values ...
  1 settings made for type
Setting atom values ...
  1 settings made for type
Setting atom values ...
  1 settings made for type
Setting atom values ...
  1 settings made for type
Setting atom values ...
  1 settings made for type
Setting atom values ...
  1 settings made for type
Setting atom values ...
  1 settings made for type
Setting atom values ...
  1 settings made for type
Setting atom values ...
  1 settings made for type
pair_style meam
pair_coeff * * <HOME>/projects/beta-sn-elasticity/surface_gb/meam_potentials/library.Sn.Etesami2018.meam Sn <HOME>/projects/beta-sn-elasticity/surface_gb/meam_potentials/Sn.Etesami2018.meam Sn
compute pe_peratom all pe/atom
mass 1 118.709999969462515423401782754809
variable pxx equal pxx
variable pyy equal pyy
variable pzz equal pzz
variable pxy equal pxy
variable pxz equal pxz
variable pyz equal pyz
thermo_style custom pe pxx emol ecoul
variable fx atom fx
variable fy atom fy
variable fz atom fz
variable pe equal pe
neigh_modify delay 0 every 1 check yes
echo none
run 0
WARNING: No fixes with time integration, atoms won't move (src/verlet.cpp:60)
Neighbor list info ...
  update: every = 1 steps, delay = 0 steps, check = yes
  max neighbors/atom: 2000, page size: 100000
  master list distance cutoff = 7.5
  ghost atom cutoff = 7.5
  binsize = 3.75, bins = 2 2 17
  2 neighbor lists, perpetual/occasional/extra = 2 0 0
  (1) pair meam, perpetual
      attributes: full, newton on
      pair build: full/bin/atomonly
      stencil: full/bin/3d
      bin: standard
  (2) pair meam, perpetual, half/full from (1)
      attributes: half, newton on
      pair build: halffull/newton/tri
      stencil: none
      bin: none
Per MPI rank memory allocation (min/avg/max) = 8.617 | 8.617 | 8.617 Mbytes
    PotEng          Pxx           E_mol          E_coul    
-139.70391      11977.822      0              0            
Loop time of 4.58e-07 on 1 procs for 0 steps with 48 atoms

218.3% CPU use with 1 MPI tasks x 1 OpenMP threads

MPI task timing breakdown:
Section |  min time  |  avg time  |  max time  |%varavg| %total
---------------------------------------------------------------
Pair    | 0          | 0          | 0          |   0.0 |  0.00
Neigh   | 0          | 0          | 0          |   0.0 |  0.00
Comm    | 0          | 0          | 0          |   0.0 |  0.00
Output  | 0          | 0          | 0          |   0.0 |  0.00
Modify  | 0          | 0          | 0          |   0.0 |  0.00
Other   |            | 4.58e-07   |            |       |100.00

Nlocal:             48 ave          48 max          48 min
Histogram: 1 0 0 0 0 0 0 0 0 0
Nghost:            495 ave         495 max         495 min
Histogram: 1 0 0 0 0 0 0 0 0 0
Neighs:           1416 ave        1416 max        1416 min
Histogram: 1 0 0 0 0 0 0 0 0 0
FullNghs:         2832 ave        2832 max        2832 min
Histogram: 1 0 0 0 0 0 0 0 0 0

Total # of neighbors = 2832
Ave neighs/atom = 59
Neighbor list builds = 0
Dangerous builds = 0
set atom * x 0.0 y 0.0 z 0.0
Setting atom values ...
  48 settings made for x
  48 settings made for y
  48 settings made for z
change_box all     x final 0 6.7417648799254986 y final 0 5.91399681065986 z final 0 61.94173373669642      xy final 3.138414869177541e-17 xz final 0.0 yz final 0.0 units box
Changing box ...
  triclinic box = (0 0 0) to (6.7417649 5.9139968 61.941734) with tilt (3.1384149e-17 0 0)
  triclinic box = (0 0 0) to (6.7417649 5.9139968 61.941734) with tilt (3.1384149e-17 0 0)
  triclinic box = (0 0 0) to (6.7417649 5.9139968 61.941734) with tilt (3.1384149e-17 0 0)
  triclinic box = (0 0 0) to (6.7417649 5.9139968 61.941734) with tilt (3.1384149e-17 0 0)
  triclinic box = (0 0 0) to (6.7417649 5.9139968 61.941734) with tilt (3.1384149e-17 0 0)
  triclinic box = (0 0 0) to (6.7417649 5.9139968 61.941734) with tilt (3.1384149e-17 0 0)
echo none
run 0
WARNING: No fixes with time integration, atoms won't move (src/verlet.cpp:60)
Per MPI rank memory allocation (min/avg/max) = 8.742 | 8.742 | 8.742 Mbytes
    PotEng          Pxx           E_mol          E_coul    
-140.06917      10358.514      0              0            
Loop time of 4.35e-07 on 1 procs for 0 steps with 48 atoms

229.9% CPU use with 1 MPI tasks x 1 OpenMP threads

MPI task timing breakdown:
Section |  min time  |  avg time  |  max time  |%varavg| %total
---------------------------------------------------------------
Pair    | 0          | 0          | 0          |   0.0 |  0.00
Neigh   | 0          | 0          | 0          |   0.0 |  0.00
Comm    | 0          | 0          | 0          |   0.0 |  0.00
Output  | 0          | 0          | 0          |   0.0 |  0.00
Modify  | 0          | 0          | 0          |   0.0 |  0.00
Other   |            | 4.35e-07   |            |       |100.00

Nlocal:             48 ave          48 max          48 min
Histogram: 1 0 0 0 0 0 0 0 0 0
Nghost:            495 ave         495 max         495 min
Histogram: 1 0 0 0 0 0 0 0 0 0
Neighs:           1416 ave        1416 max        1416 min
Histogram: 1 0 0 0 0 0 0 0 0 0
FullNghs:         2832 ave        2832 max        2832 min
Histogram: 1 0 0 0 0 0 0 0 0 0

Total # of neighbors = 2832
Ave neighs/atom = 59
Neighbor list builds = 0
Dangerous builds = 0
set atom * x 0.0 y 0.0 z 0.0
Setting atom values ...
  48 settings made for x
  48 settings made for y
  48 settings made for z
change_box all     x final 0 6.7417648799254986 y final 0 5.91399681065986 z final 0 61.94173373669642      xy final 3.138414869177541e-17 xz final 0.0 yz final 0.0 units box
Changing box ...
  triclinic box = (0 0 0) to (6.7417649 5.9139968 61.941734) with tilt (3.1384149e-17 0 0)
  triclinic box = (0 0 0) to (6.7417649 5.9139968 61.941734) with tilt (3.1384149e-17 0 0)
  triclinic box = (0 0 0) to (6.7417649 5.9139968 61.941734) with tilt (3.1384149e-17 0 0)
  triclinic box = (0 0 0) to (6.7417649 5.9139968 61.941734) with tilt (3.1384149e-17 0 0)
  triclinic box = (0 0 0) to (6.7417649 5.9139968 61.941734) with tilt (3.1384149e-17 0 0)
  triclinic box = (0 0 0) to (6.7417649 5.9139968 61.941734) with tilt (3.1384149e-17 0 0)
echo none
run 0
WARNING: No fixes with time integration, atoms won't move (src/verlet.cpp:60)
Per MPI rank memory allocation (min/avg/max) = 8.742 | 8.742 | 8.742 Mbytes
    PotEng          Pxx           E_mol          E_coul    
-140.70861      6494.4913      0              0            
Loop time of 4.51e-07 on 1 procs for 0 steps with 48 atoms

221.7% CPU use with 1 MPI tasks x 1 OpenMP threads

MPI task timing breakdown:
Section |  min time  |  avg time  |  max time  |%varavg| %total
---------------------------------------------------------------
Pair    | 0          | 0          | 0          |   0.0 |  0.00
Neigh   | 0          | 0          | 0          |   0.0 |  0.00
Comm    | 0          | 0          | 0          |   0.0 |  0.00
Output  | 0          | 0          | 0          |   0.0 |  0.00
Modify  | 0          | 0          | 0          |   0.0 |  0.00
Other   |            | 4.51e-07   |            |       |100.00

Nlocal:             48 ave          48 max          48 min
Histogram: 1 0 0 0 0 0 0 0 0 0
Nghost:            495 ave         495 max         495 min
Histogram: 1 0 0 0 0 0 0 0 0 0
Neighs:           1416 ave        1416 max        1416 min
Histogram: 1 0 0 0 0 0 0 0 0 0
FullNghs:         2832 ave        2832 max        2832 min
Histogram: 1 0 0 0 0 0 0 0 0 0

Total # of neighbors = 2832
Ave neighs/atom = 59
Neighbor list builds = 0
Dangerous builds = 0
set atom * x 0.0 y 0.0 z 0.0
Setting atom values ...
  48 settings made for x
  48 settings made for y
  48 settings made for z
change_box all     x final 0 6.7417648799254986 y final 0 5.91399681065986 z final 0 61.94173373669642      xy final 3.138414869177541e-17 xz final 0.0 yz final 0.0 units box
Changing box ...
  triclinic box = (0 0 0) to (6.7417649 5.9139968 61.941734) with tilt (3.1384149e-17 0 0)
  triclinic box = (0 0 0) to (6.7417649 5.9139968 61.941734) with tilt (3.1384149e-17 0 0)
  triclinic box = (0 0 0) to (6.7417649 5.9139968 61.941734) with tilt (3.1384149e-17 0 0)
  triclinic box = (0 0 0) to (6.7417649 5.9139968 61.941734) with tilt (3.1384149e-17 0 0)
  triclinic box = (0 0 0) to (6.7417649 5.9139968 61.941734) with tilt (3.1384149e-17 0 0)
  triclinic box = (0 0 0) to (6.7417649 5.9139968 61.941734) with tilt (3.1384149e-17 0 0)
echo none
run 0
WARNING: No fixes with time integration, atoms won't move (src/verlet.cpp:60)
Per MPI rank memory allocation (min/avg/max) = 8.742 | 8.742 | 8.742 Mbytes
    PotEng          Pxx           E_mol          E_coul    
-140.89194      5004.2583      0              0            
Loop time of 4.21e-07 on 1 procs for 0 steps with 48 atoms

0.0% CPU use with 1 MPI tasks x 1 OpenMP threads

MPI task timing breakdown:
Section |  min time  |  avg time  |  max time  |%varavg| %total
---------------------------------------------------------------
Pair    | 0          | 0          | 0          |   0.0 |  0.00
Neigh   | 0          | 0          | 0          |   0.0 |  0.00
Comm    | 0          | 0          | 0          |   0.0 |  0.00
Output  | 0          | 0          | 0          |   0.0 |  0.00
Modify  | 0          | 0          | 0          |   0.0 |  0.00
Other   |            | 4.21e-07   |            |       |100.00

Nlocal:             48 ave          48 max          48 min
Histogram: 1 0 0 0 0 0 0 0 0 0
Nghost:            495 ave         495 max         495 min
Histogram: 1 0 0 0 0 0 0 0 0 0
Neighs:           1416 ave        1416 max        1416 min
Histogram: 1 0 0 0 0 0 0 0 0 0
FullNghs:         2832 ave        2832 max        2832 min
Histogram: 1 0 0 0 0 0 0 0 0 0

Total # of neighbors = 2832
Ave neighs/atom = 59
Neighbor list builds = 0
Dangerous builds = 0
set atom * x 0.0 y 0.0 z 0.0
Setting atom values ...
  48 settings made for x
  48 settings made for y
  48 settings made for z
change_box all     x final 0 6.7417648799254986 y final 0 5.91399681065986 z final 0 61.94173373669642      xy final 3.138414869177541e-17 xz final 0.0 yz final 0.0 units box
Changing box ...
  triclinic box = (0 0 0) to (6.7417649 5.9139968 61.941734) with tilt (3.1384149e-17 0 0)
  triclinic box = (0 0 0) to (6.7417649 5.9139968 61.941734) with tilt (3.1384149e-17 0 0)
  triclinic box = (0 0 0) to (6.7417649 5.9139968 61.941734) with tilt (3.1384149e-17 0 0)
  triclinic box = (0 0 0) to (6.7417649 5.9139968 61.941734) with tilt (3.1384149e-17 0 0)
  triclinic box = (0 0 0) to (6.7417649 5.9139968 61.941734) with tilt (3.1384149e-17 0 0)
  triclinic box = (0 0 0) to (6.7417649 5.9139968 61.941734) with tilt (3.1384149e-17 0 0)
echo none
run 0
WARNING: No fixes with time integration, atoms won't move (src/verlet.cpp:60)
Per MPI rank memory allocation (min/avg/max) = 8.742 | 8.742 | 8.742 Mbytes
    PotEng          Pxx           E_mol          E_coul    
-141.14701      2861.6038      0              0            
Loop time of 4.34e-07 on 1 procs for 0 steps with 48 atoms

230.4% CPU use with 1 MPI tasks x 1 OpenMP threads

MPI task timing breakdown:
Section |  min time  |  avg time  |  max time  |%varavg| %total
---------------------------------------------------------------
Pair    | 0          | 0          | 0          |   0.0 |  0.00
Neigh   | 0          | 0          | 0          |   0.0 |  0.00
Comm    | 0          | 0          | 0          |   0.0 |  0.00
Output  | 0          | 0          | 0          |   0.0 |  0.00
Modify  | 0          | 0          | 0          |   0.0 |  0.00
Other   |            | 4.34e-07   |            |       |100.00

Nlocal:             48 ave          48 max          48 min
Histogram: 1 0 0 0 0 0 0 0 0 0
Nghost:            495 ave         495 max         495 min
Histogram: 1 0 0 0 0 0 0 0 0 0
Neighs:           1416 ave        1416 max        1416 min
Histogram: 1 0 0 0 0 0 0 0 0 0
FullNghs:         2832 ave        2832 max        2832 min
Histogram: 1 0 0 0 0 0 0 0 0 0

Total # of neighbors = 2832
Ave neighs/atom = 59
Neighbor list builds = 0
Dangerous builds = 0
set atom * x 0.0 y 0.0 z 0.0
Setting atom values ...
  48 settings made for x
  48 settings made for y
  48 settings made for z
change_box all     x final 0 6.7417648799254986 y final 0 5.91399681065986 z final 0 61.94173373669642      xy final 3.138414869177541e-17 xz final 0.0 yz final 0.0 units box
Changing box ...
  triclinic box = (0 0 0) to (6.7417649 5.9139968 61.941734) with tilt (3.1384149e-17 0 0)
  triclinic box = (0 0 0) to (6.7417649 5.9139968 61.941734) with tilt (3.1384149e-17 0 0)
  triclinic box = (0 0 0) to (6.7417649 5.9139968 61.941734) with tilt (3.1384149e-17 0 0)
  triclinic box = (0 0 0) to (6.7417649 5.9139968 61.941734) with tilt (3.1384149e-17 0 0)
  triclinic box = (0 0 0) to (6.7417649 5.9139968 61.941734) with tilt (3.1384149e-17 0 0)
  triclinic box = (0 0 0) to (6.7417649 5.9139968 61.941734) with tilt (3.1384149e-17 0 0)
echo none
run 0
WARNING: No fixes with time integration, atoms won't move (src/verlet.cpp:60)
Per MPI rank memory allocation (min/avg/max) = 8.742 | 8.742 | 8.742 Mbytes
    PotEng          Pxx           E_mol          E_coul    
-141.27093      1864.074       0              0            
Loop time of 5e-07 on 1 procs for 0 steps with 48 atoms

200.0% CPU use with 1 MPI tasks x 1 OpenMP threads

MPI task timing breakdown:
Section |  min time  |  avg time  |  max time  |%varavg| %total
---------------------------------------------------------------
Pair    | 0          | 0          | 0          |   0.0 |  0.00
Neigh   | 0          | 0          | 0          |   0.0 |  0.00
Comm    | 0          | 0          | 0          |   0.0 |  0.00
Output  | 0          | 0          | 0          |   0.0 |  0.00
Modify  | 0          | 0          | 0          |   0.0 |  0.00
Other   |            | 5e-07      |            |       |100.00

Nlocal:             48 ave          48 max          48 min
Histogram: 1 0 0 0 0 0 0 0 0 0
Nghost:            495 ave         495 max         495 min
Histogram: 1 0 0 0 0 0 0 0 0 0
Neighs:           1416 ave        1416 max        1416 min
Histogram: 1 0 0 0 0 0 0 0 0 0
FullNghs:         2832 ave        2832 max        2832 min
Histogram: 1 0 0 0 0 0 0 0 0 0

Total # of neighbors = 2832
Ave neighs/atom = 59
Neighbor list builds = 0
Dangerous builds = 0
set atom * x 0.0 y 0.0 z 0.0
Setting atom values ...
  48 settings made for x
  48 settings made for y
  48 settings made for z
change_box all     x final 0 6.7417648799254986 y final 0 5.91399681065986 z final 0 61.94173373669642      xy final 3.138414869177541e-17 xz final 0.0 yz final 0.0 units box
Changing box ...
  triclinic box = (0 0 0) to (6.7417649 5.9139968 61.941734) with tilt (3.1384149e-17 0 0)
  triclinic box = (0 0 0) to (6.7417649 5.9139968 61.941734) with tilt (3.1384149e-17 0 0)
  triclinic box = (0 0 0) to (6.7417649 5.9139968 61.941734) with tilt (3.1384149e-17 0 0)
  triclinic box = (0 0 0) to (6.7417649 5.9139968 61.941734) with tilt (3.1384149e-17 0 0)
  triclinic box = (0 0 0) to (6.7417649 5.9139968 61.941734) with tilt (3.1384149e-17 0 0)
  triclinic box = (0 0 0) to (6.7417649 5.9139968 61.941734) with tilt (3.1384149e-17 0 0)
echo none
run 0
WARNING: No fixes with time integration, atoms won't move (src/verlet.cpp:60)
Per MPI rank memory allocation (min/avg/max) = 8.742 | 8.742 | 8.742 Mbytes
    PotEng          Pxx           E_mol          E_coul    
-141.35321      1397.724       0              0            
Loop time of 4.83e-07 on 1 procs for 0 steps with 48 atoms

207.0% CPU use with 1 MPI tasks x 1 OpenMP threads

MPI task timing breakdown:
Section |  min time  |  avg time  |  max time  |%varavg| %total
---------------------------------------------------------------
Pair    | 0          | 0          | 0          |   0.0 |  0.00
Neigh   | 0          | 0          | 0          |   0.0 |  0.00
Comm    | 0          | 0          | 0          |   0.0 |  0.00
Output  | 0          | 0          | 0          |   0.0 |  0.00
Modify  | 0          | 0          | 0          |   0.0 |  0.00
Other   |            | 4.83e-07   |            |       |100.00

Nlocal:             48 ave          48 max          48 min
Histogram: 1 0 0 0 0 0 0 0 0 0
Nghost:            495 ave         495 max         495 min
Histogram: 1 0 0 0 0 0 0 0 0 0
Neighs:           1416 ave        1416 max        1416 min
Histogram: 1 0 0 0 0 0 0 0 0 0
FullNghs:         2832 ave        2832 max        2832 min
Histogram: 1 0 0 0 0 0 0 0 0 0

Total # of neighbors = 2832
Ave neighs/atom = 59
Neighbor list builds = 0
Dangerous builds = 0
set atom * x 0.0 y 0.0 z 0.0
Setting atom values ...
  48 settings made for x
  48 settings made for y
  48 settings made for z
change_box all     x final 0 6.7417648799254986 y final 0 5.91399681065986 z final 0 61.94173373669642      xy final 3.138414869177541e-17 xz final 0.0 yz final 0.0 units box
Changing box ...
  triclinic box = (0 0 0) to (6.7417649 5.9139968 61.941734) with tilt (3.1384149e-17 0 0)
  triclinic box = (0 0 0) to (6.7417649 5.9139968 61.941734) with tilt (3.1384149e-17 0 0)
  triclinic box = (0 0 0) to (6.7417649 5.9139968 61.941734) with tilt (3.1384149e-17 0 0)
  triclinic box = (0 0 0) to (6.7417649 5.9139968 61.941734) with tilt (3.1384149e-17 0 0)
  triclinic box = (0 0 0) to (6.7417649 5.9139968 61.941734) with tilt (3.1384149e-17 0 0)
  triclinic box = (0 0 0) to (6.7417649 5.9139968 61.941734) with tilt (3.1384149e-17 0 0)
echo none
run 0
WARNING: No fixes with time integration, atoms won't move (src/verlet.cpp:60)
Per MPI rank memory allocation (min/avg/max) = 8.742 | 8.742 | 8.742 Mbytes
    PotEng          Pxx           E_mol          E_coul    
-141.40375      1390.1203      0              0            
Loop time of 4.39e-07 on 1 procs for 0 steps with 48 atoms

227.8% CPU use with 1 MPI tasks x 1 OpenMP threads

MPI task timing breakdown:
Section |  min time  |  avg time  |  max time  |%varavg| %total
---------------------------------------------------------------
Pair    | 0          | 0          | 0          |   0.0 |  0.00
Neigh   | 0          | 0          | 0          |   0.0 |  0.00
Comm    | 0          | 0          | 0          |   0.0 |  0.00
Output  | 0          | 0          | 0          |   0.0 |  0.00
Modify  | 0          | 0          | 0          |   0.0 |  0.00
Other   |            | 4.39e-07   |            |       |100.00

Nlocal:             48 ave          48 max          48 min
Histogram: 1 0 0 0 0 0 0 0 0 0
Nghost:            495 ave         495 max         495 min
Histogram: 1 0 0 0 0 0 0 0 0 0
Neighs:           1416 ave        1416 max        1416 min
Histogram: 1 0 0 0 0 0 0 0 0 0
FullNghs:         2832 ave        2832 max        2832 min
Histogram: 1 0 0 0 0 0 0 0 0 0

Total # of neighbors = 2832
Ave neighs/atom = 59
Neighbor list builds = 0
Dangerous builds = 0
set atom * x 0.0 y 0.0 z 0.0
Setting atom values ...
  48 settings made for x
  48 settings made for y
  48 settings made for z
change_box all     x final 0 6.7417648799254986 y final 0 5.91399681065986 z final 0 61.94173373669642      xy final 3.138414869177541e-17 xz final 0.0 yz final 0.0 units box
Changing box ...
  triclinic box = (0 0 0) to (6.7417649 5.9139968 61.941734) with tilt (3.1384149e-17 0 0)
  triclinic box = (0 0 0) to (6.7417649 5.9139968 61.941734) with tilt (3.1384149e-17 0 0)
  triclinic box = (0 0 0) to (6.7417649 5.9139968 61.941734) with tilt (3.1384149e-17 0 0)
  triclinic box = (0 0 0) to (6.7417649 5.9139968 61.941734) with tilt (3.1384149e-17 0 0)
  triclinic box = (0 0 0) to (6.7417649 5.9139968 61.941734) with tilt (3.1384149e-17 0 0)
  triclinic box = (0 0 0) to (6.7417649 5.9139968 61.941734) with tilt (3.1384149e-17 0 0)
echo none
run 0
WARNING: No fixes with time integration, atoms won't move (src/verlet.cpp:60)
Per MPI rank memory allocation (min/avg/max) = 8.742 | 8.742 | 8.742 Mbytes
    PotEng          Pxx           E_mol          E_coul    
-141.44151      1616.319       0              0            
Loop time of 4.39e-07 on 1 procs for 0 steps with 48 atoms

227.8% CPU use with 1 MPI tasks x 1 OpenMP threads

MPI task timing breakdown:
Section |  min time  |  avg time  |  max time  |%varavg| %total
---------------------------------------------------------------
Pair    | 0          | 0          | 0          |   0.0 |  0.00
Neigh   | 0          | 0          | 0          |   0.0 |  0.00
Comm    | 0          | 0          | 0          |   0.0 |  0.00
Output  | 0          | 0          | 0          |   0.0 |  0.00
Modify  | 0          | 0          | 0          |   0.0 |  0.00
Other   |            | 4.39e-07   |            |       |100.00

Nlocal:             48 ave          48 max          48 min
Histogram: 1 0 0 0 0 0 0 0 0 0
Nghost:            495 ave         495 max         495 min
Histogram: 1 0 0 0 0 0 0 0 0 0
Neighs:           1416 ave        1416 max        1416 min
Histogram: 1 0 0 0 0 0 0 0 0 0
FullNghs:         2832 ave        2832 max        2832 min
Histogram: 1 0 0 0 0 0 0 0 0 0

Total # of neighbors = 2832
Ave neighs/atom = 59
Neighbor list builds = 0
Dangerous builds = 0
set atom * x 0.0 y 0.0 z 0.0
Setting atom values ...
  48 settings made for x
  48 settings made for y
  48 settings made for z
change_box all     x final 0 6.7417648799254986 y final 0 5.91399681065986 z final 0 61.94173373669642      xy final 3.138414869177541e-17 xz final 0.0 yz final 0.0 units box
Changing box ...
  triclinic box = (0 0 0) to (6.7417649 5.9139968 61.941734) with tilt (3.1384149e-17 0 0)
  triclinic box = (0 0 0) to (6.7417649 5.9139968 61.941734) with tilt (3.1384149e-17 0 0)
  triclinic box = (0 0 0) to (6.7417649 5.9139968 61.941734) with tilt (3.1384149e-17 0 0)
  triclinic box = (0 0 0) to (6.7417649 5.9139968 61.941734) with tilt (3.1384149e-17 0 0)
  triclinic box = (0 0 0) to (6.7417649 5.9139968 61.941734) with tilt (3.1384149e-17 0 0)
  triclinic box = (0 0 0) to (6.7417649 5.9139968 61.941734) with tilt (3.1384149e-17 0 0)
echo none
run 0
WARNING: No fixes with time integration, atoms won't move (src/verlet.cpp:60)
Per MPI rank memory allocation (min/avg/max) = 8.742 | 8.742 | 8.742 Mbytes
    PotEng          Pxx           E_mol          E_coul    
-141.47263      1916.3141      0              0            
Loop time of 4.3e-07 on 1 procs for 0 steps with 48 atoms

232.6% CPU use with 1 MPI tasks x 1 OpenMP threads

MPI task timing breakdown:
Section |  min time  |  avg time  |  max time  |%varavg| %total
---------------------------------------------------------------
Pair    | 0          | 0          | 0          |   0.0 |  0.00
Neigh   | 0          | 0          | 0          |   0.0 |  0.00
Comm    | 0          | 0          | 0          |   0.0 |  0.00
Output  | 0          | 0          | 0          |   0.0 |  0.00
Modify  | 0          | 0          | 0          |   0.0 |  0.00
Other   |            | 4.3e-07    |            |       |100.00

Nlocal:             48 ave          48 max          48 min
Histogram: 1 0 0 0 0 0 0 0 0 0
Nghost:            495 ave         495 max         495 min
Histogram: 1 0 0 0 0 0 0 0 0 0
Neighs:           1416 ave        1416 max        1416 min
Histogram: 1 0 0 0 0 0 0 0 0 0
FullNghs:         2832 ave        2832 max        2832 min
Histogram: 1 0 0 0 0 0 0 0 0 0

Total # of neighbors = 2832
Ave neighs/atom = 59
Neighbor list builds = 0
Dangerous builds = 0
set atom * x 0.0 y 0.0 z 0.0
Setting atom values ...
  48 settings made for x
  48 settings made for y
  48 settings made for z
change_box all     x final 0 6.7417648799254986 y final 0 5.91399681065986 z final 0 61.94173373669642      xy final 3.138414869177541e-17 xz final 0.0 yz final 0.0 units box
Changing box ...
  triclinic box = (0 0 0) to (6.7417649 5.9139968 61.941734) with tilt (3.1384149e-17 0 0)
  triclinic box = (0 0 0) to (6.7417649 5.9139968 61.941734) with tilt (3.1384149e-17 0 0)
  triclinic box = (0 0 0) to (6.7417649 5.9139968 61.941734) with tilt (3.1384149e-17 0 0)
  triclinic box = (0 0 0) to (6.7417649 5.9139968 61.941734) with tilt (3.1384149e-17 0 0)
  triclinic box = (0 0 0) to (6.7417649 5.9139968 61.941734) with tilt (3.1384149e-17 0 0)
  triclinic box = (0 0 0) to (6.7417649 5.9139968 61.941734) with tilt (3.1384149e-17 0 0)
echo none
run 0
WARNING: No fixes with time integration, atoms won't move (src/verlet.cpp:60)
Per MPI rank memory allocation (min/avg/max) = 8.742 | 8.742 | 8.742 Mbytes
    PotEng          Pxx           E_mol          E_coul    
-141.49538      2124.918       0              0            
Loop time of 4.48e-07 on 1 procs for 0 steps with 48 atoms

223.2% CPU use with 1 MPI tasks x 1 OpenMP threads

MPI task timing breakdown:
Section |  min time  |  avg time  |  max time  |%varavg| %total
---------------------------------------------------------------
Pair    | 0          | 0          | 0          |   0.0 |  0.00
Neigh   | 0          | 0          | 0          |   0.0 |  0.00
Comm    | 0          | 0          | 0          |   0.0 |  0.00
Output  | 0          | 0          | 0          |   0.0 |  0.00
Modify  | 0          | 0          | 0          |   0.0 |  0.00
Other   |            | 4.48e-07   |            |       |100.00

Nlocal:             48 ave          48 max          48 min
Histogram: 1 0 0 0 0 0 0 0 0 0
Nghost:            495 ave         495 max         495 min
Histogram: 1 0 0 0 0 0 0 0 0 0
Neighs:           1416 ave        1416 max        1416 min
Histogram: 1 0 0 0 0 0 0 0 0 0
FullNghs:         2832 ave        2832 max        2832 min
Histogram: 1 0 0 0 0 0 0 0 0 0

Total # of neighbors = 2832
Ave neighs/atom = 59
Neighbor list builds = 0
Dangerous builds = 0
set atom * x 0.0 y 0.0 z 0.0
Setting atom values ...
  48 settings made for x
  48 settings made for y
  48 settings made for z
change_box all     x final 0 6.7417648799254986 y final 0 5.91399681065986 z final 0 61.94173373669642      xy final 3.138414869177541e-17 xz final 0.0 yz final 0.0 units box
Changing box ...
  triclinic box = (0 0 0) to (6.7417649 5.9139968 61.941734) with tilt (3.1384149e-17 0 0)
  triclinic box = (0 0 0) to (6.7417649 5.9139968 61.941734) with tilt (3.1384149e-17 0 0)
  triclinic box = (0 0 0) to (6.7417649 5.9139968 61.941734) with tilt (3.1384149e-17 0 0)
  triclinic box = (0 0 0) to (6.7417649 5.9139968 61.941734) with tilt (3.1384149e-17 0 0)
  triclinic box = (0 0 0) to (6.7417649 5.9139968 61.941734) with tilt (3.1384149e-17 0 0)
  triclinic box = (0 0 0) to (6.7417649 5.9139968 61.941734) with tilt (3.1384149e-17 0 0)
echo none
run 0
WARNING: No fixes with time integration, atoms won't move (src/verlet.cpp:60)
Per MPI rank memory allocation (min/avg/max) = 8.742 | 8.742 | 8.742 Mbytes
    PotEng          Pxx           E_mol          E_coul    
-141.51176      2173.5792      0              0            
Loop time of 4.64e-07 on 1 procs for 0 steps with 48 atoms

0.0% CPU use with 1 MPI tasks x 1 OpenMP threads

MPI task timing breakdown:
Section |  min time  |  avg time  |  max time  |%varavg| %total
---------------------------------------------------------------
Pair    | 0          | 0          | 0          |   0.0 |  0.00
Neigh   | 0          | 0          | 0          |   0.0 |  0.00
Comm    | 0          | 0          | 0          |   0.0 |  0.00
Output  | 0          | 0          | 0          |   0.0 |  0.00
Modify  | 0          | 0          | 0          |   0.0 |  0.00
Other   |            | 4.64e-07   |            |       |100.00

Nlocal:             48 ave          48 max          48 min
Histogram: 1 0 0 0 0 0 0 0 0 0
Nghost:            495 ave         495 max         495 min
Histogram: 1 0 0 0 0 0 0 0 0 0
Neighs:           1416 ave        1416 max        1416 min
Histogram: 1 0 0 0 0 0 0 0 0 0
FullNghs:         2832 ave        2832 max        2832 min
Histogram: 1 0 0 0 0 0 0 0 0 0

Total # of neighbors = 2832
Ave neighs/atom = 59
Neighbor list builds = 0
Dangerous builds = 0
set atom * x 0.0 y 0.0 z 0.0
Setting atom values ...
  48 settings made for x
  48 settings made for y
  48 settings made for z
change_box all     x final 0 6.7417648799254986 y final 0 5.91399681065986 z final 0 61.94173373669642      xy final 3.138414869177541e-17 xz final 0.0 yz final 0.0 units box
Changing box ...
  triclinic box = (0 0 0) to (6.7417649 5.9139968 61.941734) with tilt (3.1384149e-17 0 0)
  triclinic box = (0 0 0) to (6.7417649 5.9139968 61.941734) with tilt (3.1384149e-17 0 0)
  triclinic box = (0 0 0) to (6.7417649 5.9139968 61.941734) with tilt (3.1384149e-17 0 0)
  triclinic box = (0 0 0) to (6.7417649 5.9139968 61.941734) with tilt (3.1384149e-17 0 0)
  triclinic box = (0 0 0) to (6.7417649 5.9139968 61.941734) with tilt (3.1384149e-17 0 0)
  triclinic box = (0 0 0) to (6.7417649 5.9139968 61.941734) with tilt (3.1384149e-17 0 0)
echo none
run 0
WARNING: No fixes with time integration, atoms won't move (src/verlet.cpp:60)
Per MPI rank memory allocation (min/avg/max) = 8.742 | 8.742 | 8.742 Mbytes
    PotEng          Pxx           E_mol          E_coul    
-141.52264      2080.9114      0              0            
Loop time of 4.3e-07 on 1 procs for 0 steps with 48 atoms

232.6% CPU use with 1 MPI tasks x 1 OpenMP threads

MPI task timing breakdown:
Section |  min time  |  avg time  |  max time  |%varavg| %total
---------------------------------------------------------------
Pair    | 0          | 0          | 0          |   0.0 |  0.00
Neigh   | 0          | 0          | 0          |   0.0 |  0.00
Comm    | 0          | 0          | 0          |   0.0 |  0.00
Output  | 0          | 0          | 0          |   0.0 |  0.00
Modify  | 0          | 0          | 0          |   0.0 |  0.00
Other   |            | 4.3e-07    |            |       |100.00

Nlocal:             48 ave          48 max          48 min
Histogram: 1 0 0 0 0 0 0 0 0 0
Nghost:            495 ave         495 max         495 min
Histogram: 1 0 0 0 0 0 0 0 0 0
Neighs:           1416 ave        1416 max        1416 min
Histogram: 1 0 0 0 0 0 0 0 0 0
FullNghs:         2832 ave        2832 max        2832 min
Histogram: 1 0 0 0 0 0 0 0 0 0

Total # of neighbors = 2832
Ave neighs/atom = 59
Neighbor list builds = 0
Dangerous builds = 0
set atom * x 0.0 y 0.0 z 0.0
Setting atom values ...
  48 settings made for x
  48 settings made for y
  48 settings made for z
change_box all     x final 0 6.7417648799254986 y final 0 5.91399681065986 z final 0 61.94173373669642      xy final 3.138414869177541e-17 xz final 0.0 yz final 0.0 units box
Changing box ...
  triclinic box = (0 0 0) to (6.7417649 5.9139968 61.941734) with tilt (3.1384149e-17 0 0)
  triclinic box = (0 0 0) to (6.7417649 5.9139968 61.941734) with tilt (3.1384149e-17 0 0)
  triclinic box = (0 0 0) to (6.7417649 5.9139968 61.941734) with tilt (3.1384149e-17 0 0)
  triclinic box = (0 0 0) to (6.7417649 5.9139968 61.941734) with tilt (3.1384149e-17 0 0)
  triclinic box = (0 0 0) to (6.7417649 5.9139968 61.941734) with tilt (3.1384149e-17 0 0)
  triclinic box = (0 0 0) to (6.7417649 5.9139968 61.941734) with tilt (3.1384149e-17 0 0)
echo none
run 0
WARNING: No fixes with time integration, atoms won't move (src/verlet.cpp:60)
Per MPI rank memory allocation (min/avg/max) = 8.742 | 8.742 | 8.742 Mbytes
    PotEng          Pxx           E_mol          E_coul    
-141.53096      1941.3891      0              0            
Loop time of 4.91e-07 on 1 procs for 0 steps with 48 atoms

0.0% CPU use with 1 MPI tasks x 1 OpenMP threads

MPI task timing breakdown:
Section |  min time  |  avg time  |  max time  |%varavg| %total
---------------------------------------------------------------
Pair    | 0          | 0          | 0          |   0.0 |  0.00
Neigh   | 0          | 0          | 0          |   0.0 |  0.00
Comm    | 0          | 0          | 0          |   0.0 |  0.00
Output  | 0          | 0          | 0          |   0.0 |  0.00
Modify  | 0          | 0          | 0          |   0.0 |  0.00
Other   |            | 4.91e-07   |            |       |100.00

Nlocal:             48 ave          48 max          48 min
Histogram: 1 0 0 0 0 0 0 0 0 0
Nghost:            495 ave         495 max         495 min
Histogram: 1 0 0 0 0 0 0 0 0 0
Neighs:           1416 ave        1416 max        1416 min
Histogram: 1 0 0 0 0 0 0 0 0 0
FullNghs:         2832 ave        2832 max        2832 min
Histogram: 1 0 0 0 0 0 0 0 0 0

Total # of neighbors = 2832
Ave neighs/atom = 59
Neighbor list builds = 0
Dangerous builds = 0
set atom * x 0.0 y 0.0 z 0.0
Setting atom values ...
  48 settings made for x
  48 settings made for y
  48 settings made for z
change_box all     x final 0 6.7417648799254986 y final 0 5.91399681065986 z final 0 61.94173373669642      xy final 3.138414869177541e-17 xz final 0.0 yz final 0.0 units box
Changing box ...
  triclinic box = (0 0 0) to (6.7417649 5.9139968 61.941734) with tilt (3.1384149e-17 0 0)
  triclinic box = (0 0 0) to (6.7417649 5.9139968 61.941734) with tilt (3.1384149e-17 0 0)
  triclinic box = (0 0 0) to (6.7417649 5.9139968 61.941734) with tilt (3.1384149e-17 0 0)
  triclinic box = (0 0 0) to (6.7417649 5.9139968 61.941734) with tilt (3.1384149e-17 0 0)
  triclinic box = (0 0 0) to (6.7417649 5.9139968 61.941734) with tilt (3.1384149e-17 0 0)
  triclinic box = (0 0 0) to (6.7417649 5.9139968 61.941734) with tilt (3.1384149e-17 0 0)
echo none
run 0
WARNING: No fixes with time integration, atoms won't move (src/verlet.cpp:60)
Per MPI rank memory allocation (min/avg/max) = 8.742 | 8.742 | 8.742 Mbytes
    PotEng          Pxx           E_mol          E_coul    
-141.53949      1815.7084      0              0            
Loop time of 4.28e-07 on 1 procs for 0 steps with 48 atoms

233.6% CPU use with 1 MPI tasks x 1 OpenMP threads

MPI task timing breakdown:
Section |  min time  |  avg time  |  max time  |%varavg| %total
---------------------------------------------------------------
Pair    | 0          | 0          | 0          |   0.0 |  0.00
Neigh   | 0          | 0          | 0          |   0.0 |  0.00
Comm    | 0          | 0          | 0          |   0.0 |  0.00
Output  | 0          | 0          | 0          |   0.0 |  0.00
Modify  | 0          | 0          | 0          |   0.0 |  0.00
Other   |            | 4.28e-07   |            |       |100.00

Nlocal:             48 ave          48 max          48 min
Histogram: 1 0 0 0 0 0 0 0 0 0
Nghost:            498 ave         498 max         498 min
Histogram: 1 0 0 0 0 0 0 0 0 0
Neighs:           1416 ave        1416 max        1416 min
Histogram: 1 0 0 0 0 0 0 0 0 0
FullNghs:         2832 ave        2832 max        2832 min
Histogram: 1 0 0 0 0 0 0 0 0 0

Total # of neighbors = 2832
Ave neighs/atom = 59
Neighbor list builds = 0
Dangerous builds = 0
set atom * x 0.0 y 0.0 z 0.0
Setting atom values ...
  48 settings made for x
  48 settings made for y
  48 settings made for z
change_box all     x final 0 6.7417648799254986 y final 0 5.91399681065986 z final 0 61.94173373669642      xy final 3.138414869177541e-17 xz final 0.0 yz final 0.0 units box
Changing box ...
  triclinic box = (0 0 0) to (6.7417649 5.9139968 61.941734) with tilt (3.1384149e-17 0 0)
  triclinic box = (0 0 0) to (6.7417649 5.9139968 61.941734) with tilt (3.1384149e-17 0 0)
  triclinic box = (0 0 0) to (6.7417649 5.9139968 61.941734) with tilt (3.1384149e-17 0 0)
  triclinic box = (0 0 0) to (6.7417649 5.9139968 61.941734) with tilt (3.1384149e-17 0 0)
  triclinic box = (0 0 0) to (6.7417649 5.9139968 61.941734) with tilt (3.1384149e-17 0 0)
  triclinic box = (0 0 0) to (6.7417649 5.9139968 61.941734) with tilt (3.1384149e-17 0 0)
echo none
run 0
WARNING: No fixes with time integration, atoms won't move (src/verlet.cpp:60)
Per MPI rank memory allocation (min/avg/max) = 8.742 | 8.742 | 8.742 Mbytes
    PotEng          Pxx           E_mol          E_coul    
-141.54728      1776.0285      0              0            
Loop time of 4.4e-07 on 1 procs for 0 steps with 48 atoms

227.3% CPU use with 1 MPI tasks x 1 OpenMP threads

MPI task timing breakdown:
Section |  min time  |  avg time  |  max time  |%varavg| %total
---------------------------------------------------------------
Pair    | 0          | 0          | 0          |   0.0 |  0.00
Neigh   | 0          | 0          | 0          |   0.0 |  0.00
Comm    | 0          | 0          | 0          |   0.0 |  0.00
Output  | 0          | 0          | 0          |   0.0 |  0.00
Modify  | 0          | 0          | 0          |   0.0 |  0.00
Other   |            | 4.4e-07    |            |       |100.00

Nlocal:             48 ave          48 max          48 min
Histogram: 1 0 0 0 0 0 0 0 0 0
Nghost:            498 ave         498 max         498 min
Histogram: 1 0 0 0 0 0 0 0 0 0
Neighs:           1416 ave        1416 max        1416 min
Histogram: 1 0 0 0 0 0 0 0 0 0
FullNghs:         2832 ave        2832 max        2832 min
Histogram: 1 0 0 0 0 0 0 0 0 0

Total # of neighbors = 2832
Ave neighs/atom = 59
Neighbor list builds = 0
Dangerous builds = 0
set atom * x 0.0 y 0.0 z 0.0
Setting atom values ...
  48 settings made for x
  48 settings made for y
  48 settings made for z
change_box all     x final 0 6.7417648799254986 y final 0 5.91399681065986 z final 0 61.94173373669642      xy final 3.138414869177541e-17 xz final 0.0 yz final 0.0 units box
Changing box ...
  triclinic box = (0 0 0) to (6.7417649 5.9139968 61.941734) with tilt (3.1384149e-17 0 0)
  triclinic box = (0 0 0) to (6.7417649 5.9139968 61.941734) with tilt (3.1384149e-17 0 0)
  triclinic box = (0 0 0) to (6.7417649 5.9139968 61.941734) with tilt (3.1384149e-17 0 0)
  triclinic box = (0 0 0) to (6.7417649 5.9139968 61.941734) with tilt (3.1384149e-17 0 0)
  triclinic box = (0 0 0) to (6.7417649 5.9139968 61.941734) with tilt (3.1384149e-17 0 0)
  triclinic box = (0 0 0) to (6.7417649 5.9139968 61.941734) with tilt (3.1384149e-17 0 0)
echo none
run 0
WARNING: No fixes with time integration, atoms won't move (src/verlet.cpp:60)
Per MPI rank memory allocation (min/avg/max) = 8.742 | 8.742 | 8.742 Mbytes
    PotEng          Pxx           E_mol          E_coul    
-141.55266      1824.7221      0              0            
Loop time of 4.46e-07 on 1 procs for 0 steps with 48 atoms

224.2% CPU use with 1 MPI tasks x 1 OpenMP threads

MPI task timing breakdown:
Section |  min time  |  avg time  |  max time  |%varavg| %total
---------------------------------------------------------------
Pair    | 0          | 0          | 0          |   0.0 |  0.00
Neigh   | 0          | 0          | 0          |   0.0 |  0.00
Comm    | 0          | 0          | 0          |   0.0 |  0.00
Output  | 0          | 0          | 0          |   0.0 |  0.00
Modify  | 0          | 0          | 0          |   0.0 |  0.00
Other   |            | 4.46e-07   |            |       |100.00

Nlocal:             48 ave          48 max          48 min
Histogram: 1 0 0 0 0 0 0 0 0 0
Nghost:            498 ave         498 max         498 min
Histogram: 1 0 0 0 0 0 0 0 0 0
Neighs:           1416 ave        1416 max        1416 min
Histogram: 1 0 0 0 0 0 0 0 0 0
FullNghs:         2832 ave        2832 max        2832 min
Histogram: 1 0 0 0 0 0 0 0 0 0

Total # of neighbors = 2832
Ave neighs/atom = 59
Neighbor list builds = 0
Dangerous builds = 0
set atom * x 0.0 y 0.0 z 0.0
Setting atom values ...
  48 settings made for x
  48 settings made for y
  48 settings made for z
change_box all     x final 0 6.7417648799254986 y final 0 5.91399681065986 z final 0 61.94173373669642      xy final 3.138414869177541e-17 xz final 0.0 yz final 0.0 units box
Changing box ...
  triclinic box = (0 0 0) to (6.7417649 5.9139968 61.941734) with tilt (3.1384149e-17 0 0)
  triclinic box = (0 0 0) to (6.7417649 5.9139968 61.941734) with tilt (3.1384149e-17 0 0)
  triclinic box = (0 0 0) to (6.7417649 5.9139968 61.941734) with tilt (3.1384149e-17 0 0)
  triclinic box = (0 0 0) to (6.7417649 5.9139968 61.941734) with tilt (3.1384149e-17 0 0)
  triclinic box = (0 0 0) to (6.7417649 5.9139968 61.941734) with tilt (3.1384149e-17 0 0)
  triclinic box = (0 0 0) to (6.7417649 5.9139968 61.941734) with tilt (3.1384149e-17 0 0)
echo none
run 0
WARNING: No fixes with time integration, atoms won't move (src/verlet.cpp:60)
Per MPI rank memory allocation (min/avg/max) = 8.742 | 8.742 | 8.742 Mbytes
    PotEng          Pxx           E_mol          E_coul    
-141.55659      1886.3655      0              0            
Loop time of 4.49e-07 on 1 procs for 0 steps with 48 atoms

222.7% CPU use with 1 MPI tasks x 1 OpenMP threads

MPI task timing breakdown:
Section |  min time  |  avg time  |  max time  |%varavg| %total
---------------------------------------------------------------
Pair    | 0          | 0          | 0          |   0.0 |  0.00
Neigh   | 0          | 0          | 0          |   0.0 |  0.00
Comm    | 0          | 0          | 0          |   0.0 |  0.00
Output  | 0          | 0          | 0          |   0.0 |  0.00
Modify  | 0          | 0          | 0          |   0.0 |  0.00
Other   |            | 4.49e-07   |            |       |100.00

Nlocal:             48 ave          48 max          48 min
Histogram: 1 0 0 0 0 0 0 0 0 0
Nghost:            498 ave         498 max         498 min
Histogram: 1 0 0 0 0 0 0 0 0 0
Neighs:           1416 ave        1416 max        1416 min
Histogram: 1 0 0 0 0 0 0 0 0 0
FullNghs:         2832 ave        2832 max        2832 min
Histogram: 1 0 0 0 0 0 0 0 0 0

Total # of neighbors = 2832
Ave neighs/atom = 59
Neighbor list builds = 0
Dangerous builds = 0
set atom * x 0.0 y 0.0 z 0.0
Setting atom values ...
  48 settings made for x
  48 settings made for y
  48 settings made for z
change_box all     x final 0 6.7417648799254986 y final 0 5.91399681065986 z final 0 61.94173373669642      xy final 3.138414869177541e-17 xz final 0.0 yz final 0.0 units box
Changing box ...
  triclinic box = (0 0 0) to (6.7417649 5.9139968 61.941734) with tilt (3.1384149e-17 0 0)
  triclinic box = (0 0 0) to (6.7417649 5.9139968 61.941734) with tilt (3.1384149e-17 0 0)
  triclinic box = (0 0 0) to (6.7417649 5.9139968 61.941734) with tilt (3.1384149e-17 0 0)
  triclinic box = (0 0 0) to (6.7417649 5.9139968 61.941734) with tilt (3.1384149e-17 0 0)
  triclinic box = (0 0 0) to (6.7417649 5.9139968 61.941734) with tilt (3.1384149e-17 0 0)
  triclinic box = (0 0 0) to (6.7417649 5.9139968 61.941734) with tilt (3.1384149e-17 0 0)
echo none
run 0
WARNING: No fixes with time integration, atoms won't move (src/verlet.cpp:60)
Per MPI rank memory allocation (min/avg/max) = 8.742 | 8.742 | 8.742 Mbytes
    PotEng          Pxx           E_mol          E_coul    
-141.5607       1918.7307      0              0            
Loop time of 4.27e-07 on 1 procs for 0 steps with 48 atoms

234.2% CPU use with 1 MPI tasks x 1 OpenMP threads

MPI task timing breakdown:
Section |  min time  |  avg time  |  max time  |%varavg| %total
---------------------------------------------------------------
Pair    | 0          | 0          | 0          |   0.0 |  0.00
Neigh   | 0          | 0          | 0          |   0.0 |  0.00
Comm    | 0          | 0          | 0          |   0.0 |  0.00
Output  | 0          | 0          | 0          |   0.0 |  0.00
Modify  | 0          | 0          | 0          |   0.0 |  0.00
Other   |            | 4.27e-07   |            |       |100.00

Nlocal:             48 ave          48 max          48 min
Histogram: 1 0 0 0 0 0 0 0 0 0
Nghost:            498 ave         498 max         498 min
Histogram: 1 0 0 0 0 0 0 0 0 0
Neighs:           1416 ave        1416 max        1416 min
Histogram: 1 0 0 0 0 0 0 0 0 0
FullNghs:         2832 ave        2832 max        2832 min
Histogram: 1 0 0 0 0 0 0 0 0 0

Total # of neighbors = 2832
Ave neighs/atom = 59
Neighbor list builds = 0
Dangerous builds = 0
set atom * x 0.0 y 0.0 z 0.0
Setting atom values ...
  48 settings made for x
  48 settings made for y
  48 settings made for z
change_box all     x final 0 6.7417648799254986 y final 0 5.91399681065986 z final 0 61.94173373669642      xy final 3.138414869177541e-17 xz final 0.0 yz final 0.0 units box
Changing box ...
  triclinic box = (0 0 0) to (6.7417649 5.9139968 61.941734) with tilt (3.1384149e-17 0 0)
  triclinic box = (0 0 0) to (6.7417649 5.9139968 61.941734) with tilt (3.1384149e-17 0 0)
  triclinic box = (0 0 0) to (6.7417649 5.9139968 61.941734) with tilt (3.1384149e-17 0 0)
  triclinic box = (0 0 0) to (6.7417649 5.9139968 61.941734) with tilt (3.1384149e-17 0 0)
  triclinic box = (0 0 0) to (6.7417649 5.9139968 61.941734) with tilt (3.1384149e-17 0 0)
  triclinic box = (0 0 0) to (6.7417649 5.9139968 61.941734) with tilt (3.1384149e-17 0 0)
echo none
run 0
WARNING: No fixes with time integration, atoms won't move (src/verlet.cpp:60)
Per MPI rank memory allocation (min/avg/max) = 8.742 | 8.742 | 8.742 Mbytes
    PotEng          Pxx           E_mol          E_coul    
-141.56547      1886.3708      0              0            
Loop time of 4.78e-07 on 1 procs for 0 steps with 48 atoms

209.2% CPU use with 1 MPI tasks x 1 OpenMP threads

MPI task timing breakdown:
Section |  min time  |  avg time  |  max time  |%varavg| %total
---------------------------------------------------------------
Pair    | 0          | 0          | 0          |   0.0 |  0.00
Neigh   | 0          | 0          | 0          |   0.0 |  0.00
Comm    | 0          | 0          | 0          |   0.0 |  0.00
Output  | 0          | 0          | 0          |   0.0 |  0.00
Modify  | 0          | 0          | 0          |   0.0 |  0.00
Other   |            | 4.78e-07   |            |       |100.00

Nlocal:             48 ave          48 max          48 min
Histogram: 1 0 0 0 0 0 0 0 0 0
Nghost:            498 ave         498 max         498 min
Histogram: 1 0 0 0 0 0 0 0 0 0
Neighs:           1416 ave        1416 max        1416 min
Histogram: 1 0 0 0 0 0 0 0 0 0
FullNghs:         2832 ave        2832 max        2832 min
Histogram: 1 0 0 0 0 0 0 0 0 0

Total # of neighbors = 2832
Ave neighs/atom = 59
Neighbor list builds = 0
Dangerous builds = 0
set atom * x 0.0 y 0.0 z 0.0
Setting atom values ...
  48 settings made for x
  48 settings made for y
  48 settings made for z
change_box all     x final 0 6.7417648799254986 y final 0 5.91399681065986 z final 0 61.94173373669642      xy final 3.138414869177541e-17 xz final 0.0 yz final 0.0 units box
Changing box ...
  triclinic box = (0 0 0) to (6.7417649 5.9139968 61.941734) with tilt (3.1384149e-17 0 0)
  triclinic box = (0 0 0) to (6.7417649 5.9139968 61.941734) with tilt (3.1384149e-17 0 0)
  triclinic box = (0 0 0) to (6.7417649 5.9139968 61.941734) with tilt (3.1384149e-17 0 0)
  triclinic box = (0 0 0) to (6.7417649 5.9139968 61.941734) with tilt (3.1384149e-17 0 0)
  triclinic box = (0 0 0) to (6.7417649 5.9139968 61.941734) with tilt (3.1384149e-17 0 0)
  triclinic box = (0 0 0) to (6.7417649 5.9139968 61.941734) with tilt (3.1384149e-17 0 0)
echo none
run 0
WARNING: No fixes with time integration, atoms won't move (src/verlet.cpp:60)
Per MPI rank memory allocation (min/avg/max) = 8.742 | 8.742 | 8.742 Mbytes
    PotEng          Pxx           E_mol          E_coul    
-141.57012      1775.7197      0              0            
Loop time of 4.72e-07 on 1 procs for 0 steps with 48 atoms

211.9% CPU use with 1 MPI tasks x 1 OpenMP threads

MPI task timing breakdown:
Section |  min time  |  avg time  |  max time  |%varavg| %total
---------------------------------------------------------------
Pair    | 0          | 0          | 0          |   0.0 |  0.00
Neigh   | 0          | 0          | 0          |   0.0 |  0.00
Comm    | 0          | 0          | 0          |   0.0 |  0.00
Output  | 0          | 0          | 0          |   0.0 |  0.00
Modify  | 0          | 0          | 0          |   0.0 |  0.00
Other   |            | 4.72e-07   |            |       |100.00

Nlocal:             48 ave          48 max          48 min
Histogram: 1 0 0 0 0 0 0 0 0 0
Nghost:            495 ave         495 max         495 min
Histogram: 1 0 0 0 0 0 0 0 0 0
Neighs:           1416 ave        1416 max        1416 min
Histogram: 1 0 0 0 0 0 0 0 0 0
FullNghs:         2832 ave        2832 max        2832 min
Histogram: 1 0 0 0 0 0 0 0 0 0

Total # of neighbors = 2832
Ave neighs/atom = 59
Neighbor list builds = 0
Dangerous builds = 0
set atom * x 0.0 y 0.0 z 0.0
Setting atom values ...
  48 settings made for x
  48 settings made for y
  48 settings made for z
change_box all     x final 0 6.7417648799254986 y final 0 5.91399681065986 z final 0 61.94173373669642      xy final 3.138414869177541e-17 xz final 0.0 yz final 0.0 units box
Changing box ...
  triclinic box = (0 0 0) to (6.7417649 5.9139968 61.941734) with tilt (3.1384149e-17 0 0)
  triclinic box = (0 0 0) to (6.7417649 5.9139968 61.941734) with tilt (3.1384149e-17 0 0)
  triclinic box = (0 0 0) to (6.7417649 5.9139968 61.941734) with tilt (3.1384149e-17 0 0)
  triclinic box = (0 0 0) to (6.7417649 5.9139968 61.941734) with tilt (3.1384149e-17 0 0)
  triclinic box = (0 0 0) to (6.7417649 5.9139968 61.941734) with tilt (3.1384149e-17 0 0)
  triclinic box = (0 0 0) to (6.7417649 5.9139968 61.941734) with tilt (3.1384149e-17 0 0)
echo none
run 0
WARNING: No fixes with time integration, atoms won't move (src/verlet.cpp:60)
Per MPI rank memory allocation (min/avg/max) = 8.742 | 8.742 | 8.742 Mbytes
    PotEng          Pxx           E_mol          E_coul    
-141.57347      1638.8168      0              0            
Loop time of 4.34e-07 on 1 procs for 0 steps with 48 atoms

230.4% CPU use with 1 MPI tasks x 1 OpenMP threads

MPI task timing breakdown:
Section |  min time  |  avg time  |  max time  |%varavg| %total
---------------------------------------------------------------
Pair    | 0          | 0          | 0          |   0.0 |  0.00
Neigh   | 0          | 0          | 0          |   0.0 |  0.00
Comm    | 0          | 0          | 0          |   0.0 |  0.00
Output  | 0          | 0          | 0          |   0.0 |  0.00
Modify  | 0          | 0          | 0          |   0.0 |  0.00
Other   |            | 4.34e-07   |            |       |100.00

Nlocal:             48 ave          48 max          48 min
Histogram: 1 0 0 0 0 0 0 0 0 0
Nghost:            495 ave         495 max         495 min
Histogram: 1 0 0 0 0 0 0 0 0 0
Neighs:           1416 ave        1416 max        1416 min
Histogram: 1 0 0 0 0 0 0 0 0 0
FullNghs:         2832 ave        2832 max        2832 min
Histogram: 1 0 0 0 0 0 0 0 0 0

Total # of neighbors = 2832
Ave neighs/atom = 59
Neighbor list builds = 0
Dangerous builds = 0
set atom * x 0.0 y 0.0 z 0.0
Setting atom values ...
  48 settings made for x
  48 settings made for y
  48 settings made for z
change_box all     x final 0 6.7417648799254986 y final 0 5.91399681065986 z final 0 61.94173373669642      xy final 3.138414869177541e-17 xz final 0.0 yz final 0.0 units box
Changing box ...
  triclinic box = (0 0 0) to (6.7417649 5.9139968 61.941734) with tilt (3.1384149e-17 0 0)
  triclinic box = (0 0 0) to (6.7417649 5.9139968 61.941734) with tilt (3.1384149e-17 0 0)
  triclinic box = (0 0 0) to (6.7417649 5.9139968 61.941734) with tilt (3.1384149e-17 0 0)
  triclinic box = (0 0 0) to (6.7417649 5.9139968 61.941734) with tilt (3.1384149e-17 0 0)
  triclinic box = (0 0 0) to (6.7417649 5.9139968 61.941734) with tilt (3.1384149e-17 0 0)
  triclinic box = (0 0 0) to (6.7417649 5.9139968 61.941734) with tilt (3.1384149e-17 0 0)
echo none
run 0
WARNING: No fixes with time integration, atoms won't move (src/verlet.cpp:60)
Per MPI rank memory allocation (min/avg/max) = 8.742 | 8.742 | 8.742 Mbytes
    PotEng          Pxx           E_mol          E_coul    
-141.57579      1525.6647      0              0            
Loop time of 4.4e-07 on 1 procs for 0 steps with 48 atoms

227.3% CPU use with 1 MPI tasks x 1 OpenMP threads

MPI task timing breakdown:
Section |  min time  |  avg time  |  max time  |%varavg| %total
---------------------------------------------------------------
Pair    | 0          | 0          | 0          |   0.0 |  0.00
Neigh   | 0          | 0          | 0          |   0.0 |  0.00
Comm    | 0          | 0          | 0          |   0.0 |  0.00
Output  | 0          | 0          | 0          |   0.0 |  0.00
Modify  | 0          | 0          | 0          |   0.0 |  0.00
Other   |            | 4.4e-07    |            |       |100.00

Nlocal:             48 ave          48 max          48 min
Histogram: 1 0 0 0 0 0 0 0 0 0
Nghost:            495 ave         495 max         495 min
Histogram: 1 0 0 0 0 0 0 0 0 0
Neighs:           1416 ave        1416 max        1416 min
Histogram: 1 0 0 0 0 0 0 0 0 0
FullNghs:         2832 ave        2832 max        2832 min
Histogram: 1 0 0 0 0 0 0 0 0 0

Total # of neighbors = 2832
Ave neighs/atom = 59
Neighbor list builds = 0
Dangerous builds = 0
set atom * x 0.0 y 0.0 z 0.0
Setting atom values ...
  48 settings made for x
  48 settings made for y
  48 settings made for z
change_box all     x final 0 6.7417648799254986 y final 0 5.91399681065986 z final 0 61.94173373669642      xy final 3.138414869177541e-17 xz final 0.0 yz final 0.0 units box
Changing box ...
  triclinic box = (0 0 0) to (6.7417649 5.9139968 61.941734) with tilt (3.1384149e-17 0 0)
  triclinic box = (0 0 0) to (6.7417649 5.9139968 61.941734) with tilt (3.1384149e-17 0 0)
  triclinic box = (0 0 0) to (6.7417649 5.9139968 61.941734) with tilt (3.1384149e-17 0 0)
  triclinic box = (0 0 0) to (6.7417649 5.9139968 61.941734) with tilt (3.1384149e-17 0 0)
  triclinic box = (0 0 0) to (6.7417649 5.9139968 61.941734) with tilt (3.1384149e-17 0 0)
  triclinic box = (0 0 0) to (6.7417649 5.9139968 61.941734) with tilt (3.1384149e-17 0 0)
echo none
run 0
WARNING: No fixes with time integration, atoms won't move (src/verlet.cpp:60)
Per MPI rank memory allocation (min/avg/max) = 8.742 | 8.742 | 8.742 Mbytes
    PotEng          Pxx           E_mol          E_coul    
-141.57818      1419.71        0              0            
Loop time of 4.47e-07 on 1 procs for 0 steps with 48 atoms

223.7% CPU use with 1 MPI tasks x 1 OpenMP threads

MPI task timing breakdown:
Section |  min time  |  avg time  |  max time  |%varavg| %total
---------------------------------------------------------------
Pair    | 0          | 0          | 0          |   0.0 |  0.00
Neigh   | 0          | 0          | 0          |   0.0 |  0.00
Comm    | 0          | 0          | 0          |   0.0 |  0.00
Output  | 0          | 0          | 0          |   0.0 |  0.00
Modify  | 0          | 0          | 0          |   0.0 |  0.00
Other   |            | 4.47e-07   |            |       |100.00

Nlocal:             48 ave          48 max          48 min
Histogram: 1 0 0 0 0 0 0 0 0 0
Nghost:            495 ave         495 max         495 min
Histogram: 1 0 0 0 0 0 0 0 0 0
Neighs:           1416 ave        1416 max        1416 min
Histogram: 1 0 0 0 0 0 0 0 0 0
FullNghs:         2832 ave        2832 max        2832 min
Histogram: 1 0 0 0 0 0 0 0 0 0

Total # of neighbors = 2832
Ave neighs/atom = 59
Neighbor list builds = 0
Dangerous builds = 0
set atom * x 0.0 y 0.0 z 0.0
Setting atom values ...
  48 settings made for x
  48 settings made for y
  48 settings made for z
change_box all     x final 0 6.7417648799254986 y final 0 5.91399681065986 z final 0 61.94173373669642      xy final 3.138414869177541e-17 xz final 0.0 yz final 0.0 units box
Changing box ...
  triclinic box = (0 0 0) to (6.7417649 5.9139968 61.941734) with tilt (3.1384149e-17 0 0)
  triclinic box = (0 0 0) to (6.7417649 5.9139968 61.941734) with tilt (3.1384149e-17 0 0)
  triclinic box = (0 0 0) to (6.7417649 5.9139968 61.941734) with tilt (3.1384149e-17 0 0)
  triclinic box = (0 0 0) to (6.7417649 5.9139968 61.941734) with tilt (3.1384149e-17 0 0)
  triclinic box = (0 0 0) to (6.7417649 5.9139968 61.941734) with tilt (3.1384149e-17 0 0)
  triclinic box = (0 0 0) to (6.7417649 5.9139968 61.941734) with tilt (3.1384149e-17 0 0)
echo none
run 0
WARNING: No fixes with time integration, atoms won't move (src/verlet.cpp:60)
Per MPI rank memory allocation (min/avg/max) = 8.742 | 8.742 | 8.742 Mbytes
    PotEng          Pxx           E_mol          E_coul    
-141.58141      1293.2056      0              0            
Loop time of 4.83e-07 on 1 procs for 0 steps with 48 atoms

0.0% CPU use with 1 MPI tasks x 1 OpenMP threads

MPI task timing breakdown:
Section |  min time  |  avg time  |  max time  |%varavg| %total
---------------------------------------------------------------
Pair    | 0          | 0          | 0          |   0.0 |  0.00
Neigh   | 0          | 0          | 0          |   0.0 |  0.00
Comm    | 0          | 0          | 0          |   0.0 |  0.00
Output  | 0          | 0          | 0          |   0.0 |  0.00
Modify  | 0          | 0          | 0          |   0.0 |  0.00
Other   |            | 4.83e-07   |            |       |100.00

Nlocal:             48 ave          48 max          48 min
Histogram: 1 0 0 0 0 0 0 0 0 0
Nghost:            495 ave         495 max         495 min
Histogram: 1 0 0 0 0 0 0 0 0 0
Neighs:           1416 ave        1416 max        1416 min
Histogram: 1 0 0 0 0 0 0 0 0 0
FullNghs:         2832 ave        2832 max        2832 min
Histogram: 1 0 0 0 0 0 0 0 0 0

Total # of neighbors = 2832
Ave neighs/atom = 59
Neighbor list builds = 0
Dangerous builds = 0
set atom * x 0.0 y 0.0 z 0.0
Setting atom values ...
  48 settings made for x
  48 settings made for y
  48 settings made for z
change_box all     x final 0 6.7417648799254986 y final 0 5.91399681065986 z final 0 61.94173373669642      xy final 3.138414869177541e-17 xz final 0.0 yz final 0.0 units box
Changing box ...
  triclinic box = (0 0 0) to (6.7417649 5.9139968 61.941734) with tilt (3.1384149e-17 0 0)
  triclinic box = (0 0 0) to (6.7417649 5.9139968 61.941734) with tilt (3.1384149e-17 0 0)
  triclinic box = (0 0 0) to (6.7417649 5.9139968 61.941734) with tilt (3.1384149e-17 0 0)
  triclinic box = (0 0 0) to (6.7417649 5.9139968 61.941734) with tilt (3.1384149e-17 0 0)
  triclinic box = (0 0 0) to (6.7417649 5.9139968 61.941734) with tilt (3.1384149e-17 0 0)
  triclinic box = (0 0 0) to (6.7417649 5.9139968 61.941734) with tilt (3.1384149e-17 0 0)
echo none
run 0
WARNING: No fixes with time integration, atoms won't move (src/verlet.cpp:60)
Per MPI rank memory allocation (min/avg/max) = 8.742 | 8.742 | 8.742 Mbytes
    PotEng          Pxx           E_mol          E_coul    
-141.58546      1142.6039      0              0            
Loop time of 4.89e-07 on 1 procs for 0 steps with 48 atoms

204.5% CPU use with 1 MPI tasks x 1 OpenMP threads

MPI task timing breakdown:
Section |  min time  |  avg time  |  max time  |%varavg| %total
---------------------------------------------------------------
Pair    | 0          | 0          | 0          |   0.0 |  0.00
Neigh   | 0          | 0          | 0          |   0.0 |  0.00
Comm    | 0          | 0          | 0          |   0.0 |  0.00
Output  | 0          | 0          | 0          |   0.0 |  0.00
Modify  | 0          | 0          | 0          |   0.0 |  0.00
Other   |            | 4.89e-07   |            |       |100.00

Nlocal:             48 ave          48 max          48 min
Histogram: 1 0 0 0 0 0 0 0 0 0
Nghost:            495 ave         495 max         495 min
Histogram: 1 0 0 0 0 0 0 0 0 0
Neighs:           1416 ave        1416 max        1416 min
Histogram: 1 0 0 0 0 0 0 0 0 0
FullNghs:         2832 ave        2832 max        2832 min
Histogram: 1 0 0 0 0 0 0 0 0 0

Total # of neighbors = 2832
Ave neighs/atom = 59
Neighbor list builds = 0
Dangerous builds = 0
set atom * x 0.0 y 0.0 z 0.0
Setting atom values ...
  48 settings made for x
  48 settings made for y
  48 settings made for z
change_box all     x final 0 6.7417648799254986 y final 0 5.91399681065986 z final 0 61.94173373669642      xy final 3.138414869177541e-17 xz final 0.0 yz final 0.0 units box
Changing box ...
  triclinic box = (0 0 0) to (6.7417649 5.9139968 61.941734) with tilt (3.1384149e-17 0 0)
  triclinic box = (0 0 0) to (6.7417649 5.9139968 61.941734) with tilt (3.1384149e-17 0 0)
  triclinic box = (0 0 0) to (6.7417649 5.9139968 61.941734) with tilt (3.1384149e-17 0 0)
  triclinic box = (0 0 0) to (6.7417649 5.9139968 61.941734) with tilt (3.1384149e-17 0 0)
  triclinic box = (0 0 0) to (6.7417649 5.9139968 61.941734) with tilt (3.1384149e-17 0 0)
  triclinic box = (0 0 0) to (6.7417649 5.9139968 61.941734) with tilt (3.1384149e-17 0 0)
echo none
run 0
WARNING: No fixes with time integration, atoms won't move (src/verlet.cpp:60)
Per MPI rank memory allocation (min/avg/max) = 8.742 | 8.742 | 8.742 Mbytes
    PotEng          Pxx           E_mol          E_coul    
-141.5895       993.2619       0              0            
Loop time of 4.99e-07 on 1 procs for 0 steps with 48 atoms

200.4% CPU use with 1 MPI tasks x 1 OpenMP threads

MPI task timing breakdown:
Section |  min time  |  avg time  |  max time  |%varavg| %total
---------------------------------------------------------------
Pair    | 0          | 0          | 0          |   0.0 |  0.00
Neigh   | 0          | 0          | 0          |   0.0 |  0.00
Comm    | 0          | 0          | 0          |   0.0 |  0.00
Output  | 0          | 0          | 0          |   0.0 |  0.00
Modify  | 0          | 0          | 0          |   0.0 |  0.00
Other   |            | 4.99e-07   |            |       |100.00

Nlocal:             48 ave          48 max          48 min
Histogram: 1 0 0 0 0 0 0 0 0 0
Nghost:            495 ave         495 max         495 min
Histogram: 1 0 0 0 0 0 0 0 0 0
Neighs:           1416 ave        1416 max        1416 min
Histogram: 1 0 0 0 0 0 0 0 0 0
FullNghs:         2832 ave        2832 max        2832 min
Histogram: 1 0 0 0 0 0 0 0 0 0

Total # of neighbors = 2832
Ave neighs/atom = 59
Neighbor list builds = 0
Dangerous builds = 0
set atom * x 0.0 y 0.0 z 0.0
Setting atom values ...
  48 settings made for x
  48 settings made for y
  48 settings made for z
change_box all     x final 0 6.7417648799254986 y final 0 5.91399681065986 z final 0 61.94173373669642      xy final 3.138414869177541e-17 xz final 0.0 yz final 0.0 units box
Changing box ...
  triclinic box = (0 0 0) to (6.7417649 5.9139968 61.941734) with tilt (3.1384149e-17 0 0)
  triclinic box = (0 0 0) to (6.7417649 5.9139968 61.941734) with tilt (3.1384149e-17 0 0)
  triclinic box = (0 0 0) to (6.7417649 5.9139968 61.941734) with tilt (3.1384149e-17 0 0)
  triclinic box = (0 0 0) to (6.7417649 5.9139968 61.941734) with tilt (3.1384149e-17 0 0)
  triclinic box = (0 0 0) to (6.7417649 5.9139968 61.941734) with tilt (3.1384149e-17 0 0)
  triclinic box = (0 0 0) to (6.7417649 5.9139968 61.941734) with tilt (3.1384149e-17 0 0)
echo none
run 0
WARNING: No fixes with time integration, atoms won't move (src/verlet.cpp:60)
Per MPI rank memory allocation (min/avg/max) = 8.742 | 8.742 | 8.742 Mbytes
    PotEng          Pxx           E_mol          E_coul    
-141.5927       879.98794      0              0            
Loop time of 5.08e-07 on 1 procs for 0 steps with 48 atoms

196.9% CPU use with 1 MPI tasks x 1 OpenMP threads

MPI task timing breakdown:
Section |  min time  |  avg time  |  max time  |%varavg| %total
---------------------------------------------------------------
Pair    | 0          | 0          | 0          |   0.0 |  0.00
Neigh   | 0          | 0          | 0          |   0.0 |  0.00
Comm    | 0          | 0          | 0          |   0.0 |  0.00
Output  | 0          | 0          | 0          |   0.0 |  0.00
Modify  | 0          | 0          | 0          |   0.0 |  0.00
Other   |            | 5.08e-07   |            |       |100.00

Nlocal:             48 ave          48 max          48 min
Histogram: 1 0 0 0 0 0 0 0 0 0
Nghost:            495 ave         495 max         495 min
Histogram: 1 0 0 0 0 0 0 0 0 0
Neighs:           1416 ave        1416 max        1416 min
Histogram: 1 0 0 0 0 0 0 0 0 0
FullNghs:         2832 ave        2832 max        2832 min
Histogram: 1 0 0 0 0 0 0 0 0 0

Total # of neighbors = 2832
Ave neighs/atom = 59
Neighbor list builds = 0
Dangerous builds = 0
set atom * x 0.0 y 0.0 z 0.0
Setting atom values ...
  48 settings made for x
  48 settings made for y
  48 settings made for z
change_box all     x final 0 6.7417648799254986 y final 0 5.91399681065986 z final 0 61.94173373669642      xy final 3.138414869177541e-17 xz final 0.0 yz final 0.0 units box
Changing box ...
  triclinic box = (0 0 0) to (6.7417649 5.9139968 61.941734) with tilt (3.1384149e-17 0 0)
  triclinic box = (0 0 0) to (6.7417649 5.9139968 61.941734) with tilt (3.1384149e-17 0 0)
  triclinic box = (0 0 0) to (6.7417649 5.9139968 61.941734) with tilt (3.1384149e-17 0 0)
  triclinic box = (0 0 0) to (6.7417649 5.9139968 61.941734) with tilt (3.1384149e-17 0 0)
  triclinic box = (0 0 0) to (6.7417649 5.9139968 61.941734) with tilt (3.1384149e-17 0 0)
  triclinic box = (0 0 0) to (6.7417649 5.9139968 61.941734) with tilt (3.1384149e-17 0 0)
echo none
run 0
WARNING: No fixes with time integration, atoms won't move (src/verlet.cpp:60)
Per MPI rank memory allocation (min/avg/max) = 8.742 | 8.742 | 8.742 Mbytes
    PotEng          Pxx           E_mol          E_coul    
-141.59513      805.75425      0              0            
Loop time of 4.48e-07 on 1 procs for 0 steps with 48 atoms

223.2% CPU use with 1 MPI tasks x 1 OpenMP threads

MPI task timing breakdown:
Section |  min time  |  avg time  |  max time  |%varavg| %total
---------------------------------------------------------------
Pair    | 0          | 0          | 0          |   0.0 |  0.00
Neigh   | 0          | 0          | 0          |   0.0 |  0.00
Comm    | 0          | 0          | 0          |   0.0 |  0.00
Output  | 0          | 0          | 0          |   0.0 |  0.00
Modify  | 0          | 0          | 0          |   0.0 |  0.00
Other   |            | 4.48e-07   |            |       |100.00

Nlocal:             48 ave          48 max          48 min
Histogram: 1 0 0 0 0 0 0 0 0 0
Nghost:            495 ave         495 max         495 min
Histogram: 1 0 0 0 0 0 0 0 0 0
Neighs:           1416 ave        1416 max        1416 min
Histogram: 1 0 0 0 0 0 0 0 0 0
FullNghs:         2832 ave        2832 max        2832 min
Histogram: 1 0 0 0 0 0 0 0 0 0

Total # of neighbors = 2832
Ave neighs/atom = 59
Neighbor list builds = 0
Dangerous builds = 0
set atom * x 0.0 y 0.0 z 0.0
Setting atom values ...
  48 settings made for x
  48 settings made for y
  48 settings made for z
change_box all     x final 0 6.7417648799254986 y final 0 5.91399681065986 z final 0 61.94173373669642      xy final 3.138414869177541e-17 xz final 0.0 yz final 0.0 units box
Changing box ...
  triclinic box = (0 0 0) to (6.7417649 5.9139968 61.941734) with tilt (3.1384149e-17 0 0)
  triclinic box = (0 0 0) to (6.7417649 5.9139968 61.941734) with tilt (3.1384149e-17 0 0)
  triclinic box = (0 0 0) to (6.7417649 5.9139968 61.941734) with tilt (3.1384149e-17 0 0)
  triclinic box = (0 0 0) to (6.7417649 5.9139968 61.941734) with tilt (3.1384149e-17 0 0)
  triclinic box = (0 0 0) to (6.7417649 5.9139968 61.941734) with tilt (3.1384149e-17 0 0)
  triclinic box = (0 0 0) to (6.7417649 5.9139968 61.941734) with tilt (3.1384149e-17 0 0)
echo none
run 0
WARNING: No fixes with time integration, atoms won't move (src/verlet.cpp:60)
Per MPI rank memory allocation (min/avg/max) = 8.742 | 8.742 | 8.742 Mbytes
    PotEng          Pxx           E_mol          E_coul    
-141.59747      736.38613      0              0            
Loop time of 4.5e-07 on 1 procs for 0 steps with 48 atoms

222.2% CPU use with 1 MPI tasks x 1 OpenMP threads

MPI task timing breakdown:
Section |  min time  |  avg time  |  max time  |%varavg| %total
---------------------------------------------------------------
Pair    | 0          | 0          | 0          |   0.0 |  0.00
Neigh   | 0          | 0          | 0          |   0.0 |  0.00
Comm    | 0          | 0          | 0          |   0.0 |  0.00
Output  | 0          | 0          | 0          |   0.0 |  0.00
Modify  | 0          | 0          | 0          |   0.0 |  0.00
Other   |            | 4.5e-07    |            |       |100.00

Nlocal:             48 ave          48 max          48 min
Histogram: 1 0 0 0 0 0 0 0 0 0
Nghost:            495 ave         495 max         495 min
Histogram: 1 0 0 0 0 0 0 0 0 0
Neighs:           1416 ave        1416 max        1416 min
Histogram: 1 0 0 0 0 0 0 0 0 0
FullNghs:         2832 ave        2832 max        2832 min
Histogram: 1 0 0 0 0 0 0 0 0 0

Total # of neighbors = 2832
Ave neighs/atom = 59
Neighbor list builds = 0
Dangerous builds = 0
set atom * x 0.0 y 0.0 z 0.0
Setting atom values ...
  48 settings made for x
  48 settings made for y
  48 settings made for z
change_box all     x final 0 6.7417648799254986 y final 0 5.91399681065986 z final 0 61.94173373669642      xy final 3.138414869177541e-17 xz final 0.0 yz final 0.0 units box
Changing box ...
  triclinic box = (0 0 0) to (6.7417649 5.9139968 61.941734) with tilt (3.1384149e-17 0 0)
  triclinic box = (0 0 0) to (6.7417649 5.9139968 61.941734) with tilt (3.1384149e-17 0 0)
  triclinic box = (0 0 0) to (6.7417649 5.9139968 61.941734) with tilt (3.1384149e-17 0 0)
  triclinic box = (0 0 0) to (6.7417649 5.9139968 61.941734) with tilt (3.1384149e-17 0 0)
  triclinic box = (0 0 0) to (6.7417649 5.9139968 61.941734) with tilt (3.1384149e-17 0 0)
  triclinic box = (0 0 0) to (6.7417649 5.9139968 61.941734) with tilt (3.1384149e-17 0 0)
echo none
run 0
WARNING: No fixes with time integration, atoms won't move (src/verlet.cpp:60)
Per MPI rank memory allocation (min/avg/max) = 8.742 | 8.742 | 8.742 Mbytes
    PotEng          Pxx           E_mol          E_coul    
-141.60003      642.33305      0              0            
Loop time of 4.33e-07 on 1 procs for 0 steps with 48 atoms

230.9% CPU use with 1 MPI tasks x 1 OpenMP threads

MPI task timing breakdown:
Section |  min time  |  avg time  |  max time  |%varavg| %total
---------------------------------------------------------------
Pair    | 0          | 0          | 0          |   0.0 |  0.00
Neigh   | 0          | 0          | 0          |   0.0 |  0.00
Comm    | 0          | 0          | 0          |   0.0 |  0.00
Output  | 0          | 0          | 0          |   0.0 |  0.00
Modify  | 0          | 0          | 0          |   0.0 |  0.00
Other   |            | 4.33e-07   |            |       |100.00

Nlocal:             48 ave          48 max          48 min
Histogram: 1 0 0 0 0 0 0 0 0 0
Nghost:            495 ave         495 max         495 min
Histogram: 1 0 0 0 0 0 0 0 0 0
Neighs:           1416 ave        1416 max        1416 min
Histogram: 1 0 0 0 0 0 0 0 0 0
FullNghs:         2832 ave        2832 max        2832 min
Histogram: 1 0 0 0 0 0 0 0 0 0

Total # of neighbors = 2832
Ave neighs/atom = 59
Neighbor list builds = 0
Dangerous builds = 0
set atom * x 0.0 y 0.0 z 0.0
Setting atom values ...
  48 settings made for x
  48 settings made for y
  48 settings made for z
change_box all     x final 0 6.7417648799254986 y final 0 5.91399681065986 z final 0 61.94173373669642      xy final 3.138414869177541e-17 xz final 0.0 yz final 0.0 units box
Changing box ...
  triclinic box = (0 0 0) to (6.7417649 5.9139968 61.941734) with tilt (3.1384149e-17 0 0)
  triclinic box = (0 0 0) to (6.7417649 5.9139968 61.941734) with tilt (3.1384149e-17 0 0)
  triclinic box = (0 0 0) to (6.7417649 5.9139968 61.941734) with tilt (3.1384149e-17 0 0)
  triclinic box = (0 0 0) to (6.7417649 5.9139968 61.941734) with tilt (3.1384149e-17 0 0)
  triclinic box = (0 0 0) to (6.7417649 5.9139968 61.941734) with tilt (3.1384149e-17 0 0)
  triclinic box = (0 0 0) to (6.7417649 5.9139968 61.941734) with tilt (3.1384149e-17 0 0)
echo none
run 0
WARNING: No fixes with time integration, atoms won't move (src/verlet.cpp:60)
Per MPI rank memory allocation (min/avg/max) = 8.742 | 8.742 | 8.742 Mbytes
    PotEng          Pxx           E_mol          E_coul    
-141.60203      538.19281      0              0            
Loop time of 4.52e-07 on 1 procs for 0 steps with 48 atoms

221.2% CPU use with 1 MPI tasks x 1 OpenMP threads

MPI task timing breakdown:
Section |  min time  |  avg time  |  max time  |%varavg| %total
---------------------------------------------------------------
Pair    | 0          | 0          | 0          |   0.0 |  0.00
Neigh   | 0          | 0          | 0          |   0.0 |  0.00
Comm    | 0          | 0          | 0          |   0.0 |  0.00
Output  | 0          | 0          | 0          |   0.0 |  0.00
Modify  | 0          | 0          | 0          |   0.0 |  0.00
Other   |            | 4.52e-07   |            |       |100.00

Nlocal:             48 ave          48 max          48 min
Histogram: 1 0 0 0 0 0 0 0 0 0
Nghost:            495 ave         495 max         495 min
Histogram: 1 0 0 0 0 0 0 0 0 0
Neighs:           1416 ave        1416 max        1416 min
Histogram: 1 0 0 0 0 0 0 0 0 0
FullNghs:         2832 ave        2832 max        2832 min
Histogram: 1 0 0 0 0 0 0 0 0 0

Total # of neighbors = 2832
Ave neighs/atom = 59
Neighbor list builds = 0
Dangerous builds = 0
set atom * x 0.0 y 0.0 z 0.0
Setting atom values ...
  48 settings made for x
  48 settings made for y
  48 settings made for z
change_box all     x final 0 6.7417648799254986 y final 0 5.91399681065986 z final 0 61.94173373669642      xy final 3.138414869177541e-17 xz final 0.0 yz final 0.0 units box
Changing box ...
  triclinic box = (0 0 0) to (6.7417649 5.9139968 61.941734) with tilt (3.1384149e-17 0 0)
  triclinic box = (0 0 0) to (6.7417649 5.9139968 61.941734) with tilt (3.1384149e-17 0 0)
  triclinic box = (0 0 0) to (6.7417649 5.9139968 61.941734) with tilt (3.1384149e-17 0 0)
  triclinic box = (0 0 0) to (6.7417649 5.9139968 61.941734) with tilt (3.1384149e-17 0 0)
  triclinic box = (0 0 0) to (6.7417649 5.9139968 61.941734) with tilt (3.1384149e-17 0 0)
  triclinic box = (0 0 0) to (6.7417649 5.9139968 61.941734) with tilt (3.1384149e-17 0 0)
echo none
run 0
WARNING: No fixes with time integration, atoms won't move (src/verlet.cpp:60)
Per MPI rank memory allocation (min/avg/max) = 8.742 | 8.742 | 8.742 Mbytes
    PotEng          Pxx           E_mol          E_coul    
-141.60307      461.15333      0              0            
Loop time of 4.68e-07 on 1 procs for 0 steps with 48 atoms

213.7% CPU use with 1 MPI tasks x 1 OpenMP threads

MPI task timing breakdown:
Section |  min time  |  avg time  |  max time  |%varavg| %total
---------------------------------------------------------------
Pair    | 0          | 0          | 0          |   0.0 |  0.00
Neigh   | 0          | 0          | 0          |   0.0 |  0.00
Comm    | 0          | 0          | 0          |   0.0 |  0.00
Output  | 0          | 0          | 0          |   0.0 |  0.00
Modify  | 0          | 0          | 0          |   0.0 |  0.00
Other   |            | 4.68e-07   |            |       |100.00

Nlocal:             48 ave          48 max          48 min
Histogram: 1 0 0 0 0 0 0 0 0 0
Nghost:            495 ave         495 max         495 min
Histogram: 1 0 0 0 0 0 0 0 0 0
Neighs:           1416 ave        1416 max        1416 min
Histogram: 1 0 0 0 0 0 0 0 0 0
FullNghs:         2832 ave        2832 max        2832 min
Histogram: 1 0 0 0 0 0 0 0 0 0

Total # of neighbors = 2832
Ave neighs/atom = 59
Neighbor list builds = 0
Dangerous builds = 0
set atom * x 0.0 y 0.0 z 0.0
Setting atom values ...
  48 settings made for x
  48 settings made for y
  48 settings made for z
change_box all     x final 0 6.7417648799254986 y final 0 5.91399681065986 z final 0 61.94173373669642      xy final 3.138414869177541e-17 xz final 0.0 yz final 0.0 units box
Changing box ...
  triclinic box = (0 0 0) to (6.7417649 5.9139968 61.941734) with tilt (3.1384149e-17 0 0)
  triclinic box = (0 0 0) to (6.7417649 5.9139968 61.941734) with tilt (3.1384149e-17 0 0)
  triclinic box = (0 0 0) to (6.7417649 5.9139968 61.941734) with tilt (3.1384149e-17 0 0)
  triclinic box = (0 0 0) to (6.7417649 5.9139968 61.941734) with tilt (3.1384149e-17 0 0)
  triclinic box = (0 0 0) to (6.7417649 5.9139968 61.941734) with tilt (3.1384149e-17 0 0)
  triclinic box = (0 0 0) to (6.7417649 5.9139968 61.941734) with tilt (3.1384149e-17 0 0)
echo none
run 0
WARNING: No fixes with time integration, atoms won't move (src/verlet.cpp:60)
Per MPI rank memory allocation (min/avg/max) = 8.742 | 8.742 | 8.742 Mbytes
    PotEng          Pxx           E_mol          E_coul    
-141.60366      405.92766      0              0            
Loop time of 4.27e-07 on 1 procs for 0 steps with 48 atoms

234.2% CPU use with 1 MPI tasks x 1 OpenMP threads

MPI task timing breakdown:
Section |  min time  |  avg time  |  max time  |%varavg| %total
---------------------------------------------------------------
Pair    | 0          | 0          | 0          |   0.0 |  0.00
Neigh   | 0          | 0          | 0          |   0.0 |  0.00
Comm    | 0          | 0          | 0          |   0.0 |  0.00
Output  | 0          | 0          | 0          |   0.0 |  0.00
Modify  | 0          | 0          | 0          |   0.0 |  0.00
Other   |            | 4.27e-07   |            |       |100.00

Nlocal:             48 ave          48 max          48 min
Histogram: 1 0 0 0 0 0 0 0 0 0
Nghost:            495 ave         495 max         495 min
Histogram: 1 0 0 0 0 0 0 0 0 0
[...]
  triclinic box = (0 0 0) to (6.7417649 5.9139968 61.941734) with tilt (3.1384149e-17 0 0)
  triclinic box = (0 0 0) to (6.7417649 5.9139968 61.941734) with tilt (3.1384149e-17 0 0)
  triclinic box = (0 0 0) to (6.7417649 5.9139968 61.941734) with tilt (3.1384149e-17 0 0)
  triclinic box = (0 0 0) to (6.7417649 5.9139968 61.941734) with tilt (3.1384149e-17 0 0)
  triclinic box = (0 0 0) to (6.7417649 5.9139968 61.941734) with tilt (3.1384149e-17 0 0)
echo none
run 0
WARNING: No fixes with time integration, atoms won't move (src/verlet.cpp:60)
Per MPI rank memory allocation (min/avg/max) = 8.742 | 8.742 | 8.742 Mbytes
    PotEng          Pxx           E_mol          E_coul    
-141.61627     -1294.9725      0              0            
Loop time of 4.18e-07 on 1 procs for 0 steps with 48 atoms

239.2% CPU use with 1 MPI tasks x 1 OpenMP threads

MPI task timing breakdown:
Section |  min time  |  avg time  |  max time  |%varavg| %total
---------------------------------------------------------------
Pair    | 0          | 0          | 0          |   0.0 |  0.00
Neigh   | 0          | 0          | 0          |   0.0 |  0.00
Comm    | 0          | 0          | 0          |   0.0 |  0.00
Output  | 0          | 0          | 0          |   0.0 |  0.00
Modify  | 0          | 0          | 0          |   0.0 |  0.00
Other   |            | 4.18e-07   |            |       |100.00

Nlocal:             48 ave          48 max          48 min
Histogram: 1 0 0 0 0 0 0 0 0 0
Nghost:            495 ave         495 max         495 min
Histogram: 1 0 0 0 0 0 0 0 0 0
Neighs:           1416 ave        1416 max        1416 min
Histogram: 1 0 0 0 0 0 0 0 0 0
FullNghs:         2832 ave        2832 max        2832 min
Histogram: 1 0 0 0 0 0 0 0 0 0

Total # of neighbors = 2832
Ave neighs/atom = 59
Neighbor list builds = 0
Dangerous builds = 0
set atom * x 0.0 y 0.0 z 0.0
Setting atom values ...
  48 settings made for x
  48 settings made for y
  48 settings made for z
change_box all     x final 0 6.7417648799254986 y final 0 5.91399681065986 z final 0 61.94173373669642      xy final 3.138414869177541e-17 xz final 0.0 yz final 0.0 units box
Changing box ...
  triclinic box = (0 0 0) to (6.7417649 5.9139968 61.941734) with tilt (3.1384149e-17 0 0)
  triclinic box = (0 0 0) to (6.7417649 5.9139968 61.941734) with tilt (3.1384149e-17 0 0)
  triclinic box = (0 0 0) to (6.7417649 5.9139968 61.941734) with tilt (3.1384149e-17 0 0)
  triclinic box = (0 0 0) to (6.7417649 5.9139968 61.941734) with tilt (3.1384149e-17 0 0)
  triclinic box = (0 0 0) to (6.7417649 5.9139968 61.941734) with tilt (3.1384149e-17 0 0)
  triclinic box = (0 0 0) to (6.7417649 5.9139968 61.941734) with tilt (3.1384149e-17 0 0)
echo none
run 0
WARNING: No fixes with time integration, atoms won't move (src/verlet.cpp:60)
Per MPI rank memory allocation (min/avg/max) = 8.742 | 8.742 | 8.742 Mbytes
    PotEng          Pxx           E_mol          E_coul    
-141.61651     -1278.4457      0              0            
Loop time of 4.29e-07 on 1 procs for 0 steps with 48 atoms

233.1% CPU use with 1 MPI tasks x 1 OpenMP threads

MPI task timing breakdown:
Section |  min time  |  avg time  |  max time  |%varavg| %total
---------------------------------------------------------------
Pair    | 0          | 0          | 0          |   0.0 |  0.00
Neigh   | 0          | 0          | 0          |   0.0 |  0.00
Comm    | 0          | 0          | 0          |   0.0 |  0.00
Output  | 0          | 0          | 0          |   0.0 |  0.00
Modify  | 0          | 0          | 0          |   0.0 |  0.00
Other   |            | 4.29e-07   |            |       |100.00

Nlocal:             48 ave          48 max          48 min
Histogram: 1 0 0 0 0 0 0 0 0 0
Nghost:            495 ave         495 max         495 min
Histogram: 1 0 0 0 0 0 0 0 0 0
Neighs:           1416 ave        1416 max        1416 min
Histogram: 1 0 0 0 0 0 0 0 0 0
FullNghs:         2832 ave        2832 max        2832 min
Histogram: 1 0 0 0 0 0 0 0 0 0

Total # of neighbors = 2832
Ave neighs/atom = 59
Neighbor list builds = 0
Dangerous builds = 0
set atom * x 0.0 y 0.0 z 0.0
Setting atom values ...
  48 settings made for x
  48 settings made for y
  48 settings made for z
change_box all     x final 0 6.7417648799254986 y final 0 5.91399681065986 z final 0 61.94173373669642      xy final 3.138414869177541e-17 xz final 0.0 yz final 0.0 units box
Changing box ...
  triclinic box = (0 0 0) to (6.7417649 5.9139968 61.941734) with tilt (3.1384149e-17 0 0)
  triclinic box = (0 0 0) to (6.7417649 5.9139968 61.941734) with tilt (3.1384149e-17 0 0)
  triclinic box = (0 0 0) to (6.7417649 5.9139968 61.941734) with tilt (3.1384149e-17 0 0)
  triclinic box = (0 0 0) to (6.7417649 5.9139968 61.941734) with tilt (3.1384149e-17 0 0)
  triclinic box = (0 0 0) to (6.7417649 5.9139968 61.941734) with tilt (3.1384149e-17 0 0)
  triclinic box = (0 0 0) to (6.7417649 5.9139968 61.941734) with tilt (3.1384149e-17 0 0)
echo none
run 0
WARNING: No fixes with time integration, atoms won't move (src/verlet.cpp:60)
Per MPI rank memory allocation (min/avg/max) = 8.742 | 8.742 | 8.742 Mbytes
    PotEng          Pxx           E_mol          E_coul    
-141.61664     -1301.2717      0              0            
Loop time of 4.95e-07 on 1 procs for 0 steps with 48 atoms

202.0% CPU use with 1 MPI tasks x 1 OpenMP threads

MPI task timing breakdown:
Section |  min time  |  avg time  |  max time  |%varavg| %total
---------------------------------------------------------------
Pair    | 0          | 0          | 0          |   0.0 |  0.00
Neigh   | 0          | 0          | 0          |   0.0 |  0.00
Comm    | 0          | 0          | 0          |   0.0 |  0.00
Output  | 0          | 0          | 0          |   0.0 |  0.00
Modify  | 0          | 0          | 0          |   0.0 |  0.00
Other   |            | 4.95e-07   |            |       |100.00

Nlocal:             48 ave          48 max          48 min
Histogram: 1 0 0 0 0 0 0 0 0 0
Nghost:            495 ave         495 max         495 min
Histogram: 1 0 0 0 0 0 0 0 0 0
Neighs:           1416 ave        1416 max        1416 min
Histogram: 1 0 0 0 0 0 0 0 0 0
FullNghs:         2832 ave        2832 max        2832 min
Histogram: 1 0 0 0 0 0 0 0 0 0

Total # of neighbors = 2832
Ave neighs/atom = 59
Neighbor list builds = 0
Dangerous builds = 0
set atom * x 0.0 y 0.0 z 0.0
Setting atom values ...
  48 settings made for x
  48 settings made for y
  48 settings made for z
change_box all     x final 0 6.7417648799254986 y final 0 5.91399681065986 z final 0 61.94173373669642      xy final 3.138414869177541e-17 xz final 0.0 yz final 0.0 units box
Changing box ...
  triclinic box = (0 0 0) to (6.7417649 5.9139968 61.941734) with tilt (3.1384149e-17 0 0)
  triclinic box = (0 0 0) to (6.7417649 5.9139968 61.941734) with tilt (3.1384149e-17 0 0)
  triclinic box = (0 0 0) to (6.7417649 5.9139968 61.941734) with tilt (3.1384149e-17 0 0)
  triclinic box = (0 0 0) to (6.7417649 5.9139968 61.941734) with tilt (3.1384149e-17 0 0)
  triclinic box = (0 0 0) to (6.7417649 5.9139968 61.941734) with tilt (3.1384149e-17 0 0)
  triclinic box = (0 0 0) to (6.7417649 5.9139968 61.941734) with tilt (3.1384149e-17 0 0)
echo none
run 0
WARNING: No fixes with time integration, atoms won't move (src/verlet.cpp:60)
Per MPI rank memory allocation (min/avg/max) = 8.742 | 8.742 | 8.742 Mbytes
    PotEng          Pxx           E_mol          E_coul    
-141.61672     -1329.3829      0              0            
Loop time of 4.36e-07 on 1 procs for 0 steps with 48 atoms

229.4% CPU use with 1 MPI tasks x 1 OpenMP threads

MPI task timing breakdown:
Section |  min time  |  avg time  |  max time  |%varavg| %total
---------------------------------------------------------------
Pair    | 0          | 0          | 0          |   0.0 |  0.00
Neigh   | 0          | 0          | 0          |   0.0 |  0.00
Comm    | 0          | 0          | 0          |   0.0 |  0.00
Output  | 0          | 0          | 0          |   0.0 |  0.00
Modify  | 0          | 0          | 0          |   0.0 |  0.00
Other   |            | 4.36e-07   |            |       |100.00

Nlocal:             48 ave          48 max          48 min
Histogram: 1 0 0 0 0 0 0 0 0 0
Nghost:            495 ave         495 max         495 min
Histogram: 1 0 0 0 0 0 0 0 0 0
Neighs:           1416 ave        1416 max        1416 min
Histogram: 1 0 0 0 0 0 0 0 0 0
FullNghs:         2832 ave        2832 max        2832 min
Histogram: 1 0 0 0 0 0 0 0 0 0

Total # of neighbors = 2832
Ave neighs/atom = 59
Neighbor list builds = 0
Dangerous builds = 0
set atom * x 0.0 y 0.0 z 0.0
Setting atom values ...
  48 settings made for x
  48 settings made for y
  48 settings made for z
change_box all     x final 0 6.7417648799254986 y final 0 5.91399681065986 z final 0 61.94173373669642      xy final 3.138414869177541e-17 xz final 0.0 yz final 0.0 units box
Changing box ...
  triclinic box = (0 0 0) to (6.7417649 5.9139968 61.941734) with tilt (3.1384149e-17 0 0)
  triclinic box = (0 0 0) to (6.7417649 5.9139968 61.941734) with tilt (3.1384149e-17 0 0)
  triclinic box = (0 0 0) to (6.7417649 5.9139968 61.941734) with tilt (3.1384149e-17 0 0)
  triclinic box = (0 0 0) to (6.7417649 5.9139968 61.941734) with tilt (3.1384149e-17 0 0)
  triclinic box = (0 0 0) to (6.7417649 5.9139968 61.941734) with tilt (3.1384149e-17 0 0)
  triclinic box = (0 0 0) to (6.7417649 5.9139968 61.941734) with tilt (3.1384149e-17 0 0)
echo none
run 0
WARNING: No fixes with time integration, atoms won't move (src/verlet.cpp:60)
Per MPI rank memory allocation (min/avg/max) = 8.742 | 8.742 | 8.742 Mbytes
    PotEng          Pxx           E_mol          E_coul    
-141.61683     -1358.1481      0              0            
Loop time of 4.61e-07 on 1 procs for 0 steps with 48 atoms

216.9% CPU use with 1 MPI tasks x 1 OpenMP threads

MPI task timing breakdown:
Section |  min time  |  avg time  |  max time  |%varavg| %total
---------------------------------------------------------------
Pair    | 0          | 0          | 0          |   0.0 |  0.00
Neigh   | 0          | 0          | 0          |   0.0 |  0.00
Comm    | 0          | 0          | 0          |   0.0 |  0.00
Output  | 0          | 0          | 0          |   0.0 |  0.00
Modify  | 0          | 0          | 0          |   0.0 |  0.00
Other   |            | 4.61e-07   |            |       |100.00

Nlocal:             48 ave          48 max          48 min
Histogram: 1 0 0 0 0 0 0 0 0 0
Nghost:            495 ave         495 max         495 min
Histogram: 1 0 0 0 0 0 0 0 0 0
Neighs:           1416 ave        1416 max        1416 min
Histogram: 1 0 0 0 0 0 0 0 0 0
FullNghs:         2832 ave        2832 max        2832 min
Histogram: 1 0 0 0 0 0 0 0 0 0

Total # of neighbors = 2832
Ave neighs/atom = 59
Neighbor list builds = 0
Dangerous builds = 0
set atom * x 0.0 y 0.0 z 0.0
Setting atom values ...
  48 settings made for x
  48 settings made for y
  48 settings made for z
change_box all     x final 0 6.7417648799254986 y final 0 5.91399681065986 z final 0 61.94173373669642      xy final 3.138414869177541e-17 xz final 0.0 yz final 0.0 units box
Changing box ...
  triclinic box = (0 0 0) to (6.7417649 5.9139968 61.941734) with tilt (3.1384149e-17 0 0)
  triclinic box = (0 0 0) to (6.7417649 5.9139968 61.941734) with tilt (3.1384149e-17 0 0)
  triclinic box = (0 0 0) to (6.7417649 5.9139968 61.941734) with tilt (3.1384149e-17 0 0)
  triclinic box = (0 0 0) to (6.7417649 5.9139968 61.941734) with tilt (3.1384149e-17 0 0)
  triclinic box = (0 0 0) to (6.7417649 5.9139968 61.941734) with tilt (3.1384149e-17 0 0)
  triclinic box = (0 0 0) to (6.7417649 5.9139968 61.941734) with tilt (3.1384149e-17 0 0)
echo none
run 0
WARNING: No fixes with time integration, atoms won't move (src/verlet.cpp:60)
Per MPI rank memory allocation (min/avg/max) = 8.742 | 8.742 | 8.742 Mbytes
    PotEng          Pxx           E_mol          E_coul    
-141.61697     -1379.5373      0              0            
Loop time of 4.55e-07 on 1 procs for 0 steps with 48 atoms

219.8% CPU use with 1 MPI tasks x 1 OpenMP threads

MPI task timing breakdown:
Section |  min time  |  avg time  |  max time  |%varavg| %total
---------------------------------------------------------------
Pair    | 0          | 0          | 0          |   0.0 |  0.00
Neigh   | 0          | 0          | 0          |   0.0 |  0.00
Comm    | 0          | 0          | 0          |   0.0 |  0.00
Output  | 0          | 0          | 0          |   0.0 |  0.00
Modify  | 0          | 0          | 0          |   0.0 |  0.00
Other   |            | 4.55e-07   |            |       |100.00

Nlocal:             48 ave          48 max          48 min
Histogram: 1 0 0 0 0 0 0 0 0 0
Nghost:            495 ave         495 max         495 min
Histogram: 1 0 0 0 0 0 0 0 0 0
Neighs:           1416 ave        1416 max        1416 min
Histogram: 1 0 0 0 0 0 0 0 0 0
FullNghs:         2832 ave        2832 max        2832 min
Histogram: 1 0 0 0 0 0 0 0 0 0

Total # of neighbors = 2832
Ave neighs/atom = 59
Neighbor list builds = 0
Dangerous builds = 0
set atom * x 0.0 y 0.0 z 0.0
Setting atom values ...
  48 settings made for x
  48 settings made for y
  48 settings made for z
change_box all     x final 0 6.7417648799254986 y final 0 5.91399681065986 z final 0 61.94173373669642      xy final 3.138414869177541e-17 xz final 0.0 yz final 0.0 units box
Changing box ...
  triclinic box = (0 0 0) to (6.7417649 5.9139968 61.941734) with tilt (3.1384149e-17 0 0)
  triclinic box = (0 0 0) to (6.7417649 5.9139968 61.941734) with tilt (3.1384149e-17 0 0)
  triclinic box = (0 0 0) to (6.7417649 5.9139968 61.941734) with tilt (3.1384149e-17 0 0)
  triclinic box = (0 0 0) to (6.7417649 5.9139968 61.941734) with tilt (3.1384149e-17 0 0)
  triclinic box = (0 0 0) to (6.7417649 5.9139968 61.941734) with tilt (3.1384149e-17 0 0)
  triclinic box = (0 0 0) to (6.7417649 5.9139968 61.941734) with tilt (3.1384149e-17 0 0)
echo none
run 0
WARNING: No fixes with time integration, atoms won't move (src/verlet.cpp:60)
Per MPI rank memory allocation (min/avg/max) = 8.742 | 8.742 | 8.742 Mbytes
    PotEng          Pxx           E_mol          E_coul    
-141.61709     -1382.348       0              0            
Loop time of 4.68e-07 on 1 procs for 0 steps with 48 atoms

213.7% CPU use with 1 MPI tasks x 1 OpenMP threads

MPI task timing breakdown:
Section |  min time  |  avg time  |  max time  |%varavg| %total
---------------------------------------------------------------
Pair    | 0          | 0          | 0          |   0.0 |  0.00
Neigh   | 0          | 0          | 0          |   0.0 |  0.00
Comm    | 0          | 0          | 0          |   0.0 |  0.00
Output  | 0          | 0          | 0          |   0.0 |  0.00
Modify  | 0          | 0          | 0          |   0.0 |  0.00
Other   |            | 4.68e-07   |            |       |100.00

Nlocal:             48 ave          48 max          48 min
Histogram: 1 0 0 0 0 0 0 0 0 0
Nghost:            495 ave         495 max         495 min
Histogram: 1 0 0 0 0 0 0 0 0 0
Neighs:           1416 ave        1416 max        1416 min
Histogram: 1 0 0 0 0 0 0 0 0 0
FullNghs:         2832 ave        2832 max        2832 min
Histogram: 1 0 0 0 0 0 0 0 0 0

Total # of neighbors = 2832
Ave neighs/atom = 59
Neighbor list builds = 0
Dangerous builds = 0
set atom * x 0.0 y 0.0 z 0.0
Setting atom values ...
  48 settings made for x
  48 settings made for y
  48 settings made for z
change_box all     x final 0 6.7417648799254986 y final 0 5.91399681065986 z final 0 61.94173373669642      xy final 3.138414869177541e-17 xz final 0.0 yz final 0.0 units box
Changing box ...
  triclinic box = (0 0 0) to (6.7417649 5.9139968 61.941734) with tilt (3.1384149e-17 0 0)
  triclinic box = (0 0 0) to (6.7417649 5.9139968 61.941734) with tilt (3.1384149e-17 0 0)
  triclinic box = (0 0 0) to (6.7417649 5.9139968 61.941734) with tilt (3.1384149e-17 0 0)
  triclinic box = (0 0 0) to (6.7417649 5.9139968 61.941734) with tilt (3.1384149e-17 0 0)
  triclinic box = (0 0 0) to (6.7417649 5.9139968 61.941734) with tilt (3.1384149e-17 0 0)
  triclinic box = (0 0 0) to (6.7417649 5.9139968 61.941734) with tilt (3.1384149e-17 0 0)
echo none
run 0
WARNING: No fixes with time integration, atoms won't move (src/verlet.cpp:60)
Per MPI rank memory allocation (min/avg/max) = 8.742 | 8.742 | 8.742 Mbytes
    PotEng          Pxx           E_mol          E_coul    
-141.61717     -1374.508       0              0            
Loop time of 4.3e-07 on 1 procs for 0 steps with 48 atoms

232.6% CPU use with 1 MPI tasks x 1 OpenMP threads

MPI task timing breakdown:
Section |  min time  |  avg time  |  max time  |%varavg| %total
---------------------------------------------------------------
Pair    | 0          | 0          | 0          |   0.0 |  0.00
Neigh   | 0          | 0          | 0          |   0.0 |  0.00
Comm    | 0          | 0          | 0          |   0.0 |  0.00
Output  | 0          | 0          | 0          |   0.0 |  0.00
Modify  | 0          | 0          | 0          |   0.0 |  0.00
Other   |            | 4.3e-07    |            |       |100.00

Nlocal:             48 ave          48 max          48 min
Histogram: 1 0 0 0 0 0 0 0 0 0
Nghost:            495 ave         495 max         495 min
Histogram: 1 0 0 0 0 0 0 0 0 0
Neighs:           1416 ave        1416 max        1416 min
Histogram: 1 0 0 0 0 0 0 0 0 0
FullNghs:         2832 ave        2832 max        2832 min
Histogram: 1 0 0 0 0 0 0 0 0 0

Total # of neighbors = 2832
Ave neighs/atom = 59
Neighbor list builds = 0
Dangerous builds = 0
set atom * x 0.0 y 0.0 z 0.0
Setting atom values ...
  48 settings made for x
  48 settings made for y
  48 settings made for z
change_box all     x final 0 6.7417648799254986 y final 0 5.91399681065986 z final 0 61.94173373669642      xy final 3.138414869177541e-17 xz final 0.0 yz final 0.0 units box
Changing box ...
  triclinic box = (0 0 0) to (6.7417649 5.9139968 61.941734) with tilt (3.1384149e-17 0 0)
  triclinic box = (0 0 0) to (6.7417649 5.9139968 61.941734) with tilt (3.1384149e-17 0 0)
  triclinic box = (0 0 0) to (6.7417649 5.9139968 61.941734) with tilt (3.1384149e-17 0 0)
  triclinic box = (0 0 0) to (6.7417649 5.9139968 61.941734) with tilt (3.1384149e-17 0 0)
  triclinic box = (0 0 0) to (6.7417649 5.9139968 61.941734) with tilt (3.1384149e-17 0 0)
  triclinic box = (0 0 0) to (6.7417649 5.9139968 61.941734) with tilt (3.1384149e-17 0 0)
echo none
run 0
WARNING: No fixes with time integration, atoms won't move (src/verlet.cpp:60)
Per MPI rank memory allocation (min/avg/max) = 8.742 | 8.742 | 8.742 Mbytes
    PotEng          Pxx           E_mol          E_coul    
-141.61722     -1373.2288      0              0            
Loop time of 4.66e-07 on 1 procs for 0 steps with 48 atoms

214.6% CPU use with 1 MPI tasks x 1 OpenMP threads

MPI task timing breakdown:
Section |  min time  |  avg time  |  max time  |%varavg| %total
---------------------------------------------------------------
Pair    | 0          | 0          | 0          |   0.0 |  0.00
Neigh   | 0          | 0          | 0          |   0.0 |  0.00
Comm    | 0          | 0          | 0          |   0.0 |  0.00
Output  | 0          | 0          | 0          |   0.0 |  0.00
Modify  | 0          | 0          | 0          |   0.0 |  0.00
Other   |            | 4.66e-07   |            |       |100.00

Nlocal:             48 ave          48 max          48 min
Histogram: 1 0 0 0 0 0 0 0 0 0
Nghost:            495 ave         495 max         495 min
Histogram: 1 0 0 0 0 0 0 0 0 0
Neighs:           1416 ave        1416 max        1416 min
Histogram: 1 0 0 0 0 0 0 0 0 0
FullNghs:         2832 ave        2832 max        2832 min
Histogram: 1 0 0 0 0 0 0 0 0 0

Total # of neighbors = 2832
Ave neighs/atom = 59
Neighbor list builds = 0
Dangerous builds = 0
Total wall time: 0:00:00
