LAMMPS (29 Aug 2024)
OMP_NUM_THREADS environment is not set. Defaulting to 1 thread. (src/comm.cpp:98)
  using 1 OpenMP thread(s) per MPI task
units metal
atom_style atomic
atom_modify map array sort 0 0
boundary p p p
box tilt large

The 'box' command has been removed and will be ignored

region cell prism    0 5.831 0 5.831 0 3.182     0.0 0.0 0.0     units box
create_box 1 cell
Created triclinic box = (0 0 0) to (5.831 5.831 3.182) with tilt (0 0 0)
  1 by 1 by 1 MPI processor grid
echo none
Created 4 atoms
  using lattice units in triclinic box = (0 0 0) to (5.831 5.831 3.182) with tilt (0 0 0)
  create_atoms CPU = 0.000 seconds
Setting atom values ...
  1 settings made for type
Setting atom values ...
  1 settings made for type
Setting atom values ...
  1 settings made for type
Setting atom values ...
  1 settings made for type
pair_style meam
pair_coeff * * <HOME>/projects/beta-sn-elasticity/surface_gb/meam_potentials/library.Sn.Ravelo1997.meam Sn <HOME>/projects/beta-sn-elasticity/surface_gb/meam_potentials/Sn.Ravelo1997.meam Sn
compute pe_peratom all pe/atom
mass 1 118.709999969462515423401782754809
variable pxx equal pxx
variable pyy equal pyy
variable pzz equal pzz
variable pxy equal pxy
variable pxz equal pxz
variable pyz equal pyz
thermo_style custom pe pxx emol ecoul
variable fx atom fx
variable fy atom fy
variable fz atom fz
variable pe equal pe
neigh_modify delay 0 every 1 check yes
echo none
run 0
WARNING: No fixes with time integration, atoms won't move (src/verlet.cpp:60)
Neighbor list info ...
  update: every = 1 steps, delay = 0 steps, check = yes
  max neighbors/atom: 2000, page size: 100000
  master list distance cutoff = 7.5
  ghost atom cutoff = 7.5
  binsize = 3.75, bins = 2 2 1
  2 neighbor lists, perpetual/occasional/extra = 2 0 0
  (1) pair meam, perpetual
      attributes: full, newton on
      pair build: full/bin/atomonly
      stencil: full/bin/3d
      bin: standard
  (2) pair meam, perpetual, half/full from (1)
      attributes: half, newton on
      pair build: halffull/newton/tri
      stencil: none
      bin: none
Per MPI rank memory allocation (min/avg/max) = 8.508 | 8.508 | 8.508 Mbytes
    PotEng          Pxx           E_mol          E_coul    
-12.288111      33569.04       0              0            
Loop time of 8.86e-07 on 1 procs for 0 steps with 4 atoms

225.7% CPU use with 1 MPI tasks x 1 OpenMP threads

MPI task timing breakdown:
Section |  min time  |  avg time  |  max time  |%varavg| %total
---------------------------------------------------------------
Pair    | 0          | 0          | 0          |   0.0 |  0.00
Neigh   | 0          | 0          | 0          |   0.0 |  0.00
Comm    | 0          | 0          | 0          |   0.0 |  0.00
Output  | 0          | 0          | 0          |   0.0 |  0.00
Modify  | 0          | 0          | 0          |   0.0 |  0.00
Other   |            | 8.86e-07   |            |       |100.00

Nlocal:              4 ave           4 max           4 min
Histogram: 1 0 0 0 0 0 0 0 0 0
Nghost:            281 ave         281 max         281 min
Histogram: 1 0 0 0 0 0 0 0 0 0
Neighs:            128 ave         128 max         128 min
Histogram: 1 0 0 0 0 0 0 0 0 0
FullNghs:          256 ave         256 max         256 min
Histogram: 1 0 0 0 0 0 0 0 0 0

Total # of neighbors = 256
Ave neighs/atom = 64
Neighbor list builds = 0
Dangerous builds = 0
set atom * x 0.0 y 0.0 z 0.0
Setting atom values ...
  4 settings made for x
  4 settings made for y
  4 settings made for z
change_box all     x final 0 6.019825128287187 y final 0 6.019825128287187 z final 0 3.287888636562439      xy final 1.7926206855054303e-17 xz final 3.1561282985946924e-18 yz final 4.993850582917388e-17 units box
Changing box ...
  triclinic box = (0 0 0) to (6.0198251 5.831 3.182) with tilt (0 0 0)
  triclinic box = (0 0 0) to (6.0198251 6.0198251 3.182) with tilt (0 0 0)
  triclinic box = (0 0 0) to (6.0198251 6.0198251 3.2878886) with tilt (0 0 0)
  triclinic box = (0 0 0) to (6.0198251 6.0198251 3.2878886) with tilt (1.7926207e-17 0 0)
  triclinic box = (0 0 0) to (6.0198251 6.0198251 3.2878886) with tilt (1.7926207e-17 3.1561283e-18 0)
  triclinic box = (0 0 0) to (6.0198251 6.0198251 3.2878886) with tilt (1.7926207e-17 3.1561283e-18 4.9938506e-17)
echo none
run 0
WARNING: No fixes with time integration, atoms won't move (src/verlet.cpp:60)
Per MPI rank memory allocation (min/avg/max) = 8.633 | 8.633 | 8.633 Mbytes
    PotEng          Pxx           E_mol          E_coul    
-12.286964     -28936.928      0              0            
Loop time of 5.48e-07 on 1 procs for 0 steps with 4 atoms

182.5% CPU use with 1 MPI tasks x 1 OpenMP threads

MPI task timing breakdown:
Section |  min time  |  avg time  |  max time  |%varavg| %total
---------------------------------------------------------------
Pair    | 0          | 0          | 0          |   0.0 |  0.00
Neigh   | 0          | 0          | 0          |   0.0 |  0.00
Comm    | 0          | 0          | 0          |   0.0 |  0.00
Output  | 0          | 0          | 0          |   0.0 |  0.00
Modify  | 0          | 0          | 0          |   0.0 |  0.00
Other   |            | 5.48e-07   |            |       |100.00

Nlocal:              4 ave           4 max           4 min
Histogram: 1 0 0 0 0 0 0 0 0 0
Nghost:            281 ave         281 max         281 min
Histogram: 1 0 0 0 0 0 0 0 0 0
Neighs:            128 ave         128 max         128 min
Histogram: 1 0 0 0 0 0 0 0 0 0
FullNghs:          256 ave         256 max         256 min
Histogram: 1 0 0 0 0 0 0 0 0 0

Total # of neighbors = 256
Ave neighs/atom = 64
Neighbor list builds = 0
Dangerous builds = 0
set atom * x 0.0 y 0.0 z 0.0
Setting atom values ...
  4 settings made for x
  4 settings made for y
  4 settings made for z
change_box all     x final 0 5.926595167856067 y final 0 5.926595167856067 z final 0 3.2401029317701724      xy final 2.2211492371606426e-17 xz final -3.746137606893874e-18 yz final 4.5859933201274105e-17 units box
Changing box ...
  triclinic box = (0 0 0) to (5.9265952 6.0198251 3.2878886) with tilt (1.7926207e-17 3.1561283e-18 4.9938506e-17)
  triclinic box = (0 0 0) to (5.9265952 5.9265952 3.2878886) with tilt (1.7926207e-17 3.1561283e-18 4.9938506e-17)
  triclinic box = (0 0 0) to (5.9265952 5.9265952 3.2401029) with tilt (1.7926207e-17 3.1561283e-18 4.9938506e-17)
  triclinic box = (0 0 0) to (5.9265952 5.9265952 3.2401029) with tilt (2.2211492e-17 3.1561283e-18 4.9938506e-17)
  triclinic box = (0 0 0) to (5.9265952 5.9265952 3.2401029) with tilt (2.2211492e-17 -3.7461376e-18 4.9938506e-17)
  triclinic box = (0 0 0) to (5.9265952 5.9265952 3.2401029) with tilt (2.2211492e-17 -3.7461376e-18 4.5859933e-17)
echo none
run 0
WARNING: No fixes with time integration, atoms won't move (src/verlet.cpp:60)
Per MPI rank memory allocation (min/avg/max) = 8.633 | 8.633 | 8.633 Mbytes
    PotEng          Pxx           E_mol          E_coul    
-12.34025      -2264.8984      0              0            
Loop time of 5.4e-07 on 1 procs for 0 steps with 4 atoms

185.2% CPU use with 1 MPI tasks x 1 OpenMP threads

MPI task timing breakdown:
Section |  min time  |  avg time  |  max time  |%varavg| %total
---------------------------------------------------------------
Pair    | 0          | 0          | 0          |   0.0 |  0.00
Neigh   | 0          | 0          | 0          |   0.0 |  0.00
Comm    | 0          | 0          | 0          |   0.0 |  0.00
Output  | 0          | 0          | 0          |   0.0 |  0.00
Modify  | 0          | 0          | 0          |   0.0 |  0.00
Other   |            | 5.4e-07    |            |       |100.00

Nlocal:              4 ave           4 max           4 min
Histogram: 1 0 0 0 0 0 0 0 0 0
Nghost:            281 ave         281 max         281 min
Histogram: 1 0 0 0 0 0 0 0 0 0
Neighs:            128 ave         128 max         128 min
Histogram: 1 0 0 0 0 0 0 0 0 0
FullNghs:          256 ave         256 max         256 min
Histogram: 1 0 0 0 0 0 0 0 0 0

Total # of neighbors = 256
Ave neighs/atom = 64
Neighbor list builds = 0
Dangerous builds = 0
set atom * x 0.0 y 0.0 z 0.0
Setting atom values ...
  4 settings made for x
  4 settings made for y
  4 settings made for z
change_box all     x final 0 5.919518983889209 y final 0 5.91951898388921 z final 0 3.234674273703672      xy final 1.237800531008776e-17 xz final -1.5160522821118482e-17 yz final 3.1766031341281273e-17 units box
Changing box ...
  triclinic box = (0 0 0) to (5.919519 5.9265952 3.2401029) with tilt (2.2211492e-17 -3.7461376e-18 4.5859933e-17)
  triclinic box = (0 0 0) to (5.919519 5.919519 3.2401029) with tilt (2.2211492e-17 -3.7461376e-18 4.5859933e-17)
  triclinic box = (0 0 0) to (5.919519 5.919519 3.2346743) with tilt (2.2211492e-17 -3.7461376e-18 4.5859933e-17)
  triclinic box = (0 0 0) to (5.919519 5.919519 3.2346743) with tilt (1.2378005e-17 -3.7461376e-18 4.5859933e-17)
  triclinic box = (0 0 0) to (5.919519 5.919519 3.2346743) with tilt (1.2378005e-17 -1.5160523e-17 4.5859933e-17)
  triclinic box = (0 0 0) to (5.919519 5.919519 3.2346743) with tilt (1.2378005e-17 -1.5160523e-17 3.1766031e-17)
echo none
run 0
WARNING: No fixes with time integration, atoms won't move (src/verlet.cpp:60)
Per MPI rank memory allocation (min/avg/max) = 8.633 | 8.633 | 8.633 Mbytes
    PotEng          Pxx           E_mol          E_coul    
-12.34057       178.1267       0              0            
Loop time of 5.39e-07 on 1 procs for 0 steps with 4 atoms

185.5% CPU use with 1 MPI tasks x 1 OpenMP threads

MPI task timing breakdown:
Section |  min time  |  avg time  |  max time  |%varavg| %total
---------------------------------------------------------------
Pair    | 0          | 0          | 0          |   0.0 |  0.00
Neigh   | 0          | 0          | 0          |   0.0 |  0.00
Comm    | 0          | 0          | 0          |   0.0 |  0.00
Output  | 0          | 0          | 0          |   0.0 |  0.00
Modify  | 0          | 0          | 0          |   0.0 |  0.00
Other   |            | 5.39e-07   |            |       |100.00

Nlocal:              4 ave           4 max           4 min
Histogram: 1 0 0 0 0 0 0 0 0 0
Nghost:            281 ave         281 max         281 min
Histogram: 1 0 0 0 0 0 0 0 0 0
Neighs:            128 ave         128 max         128 min
Histogram: 1 0 0 0 0 0 0 0 0 0
FullNghs:          256 ave         256 max         256 min
Histogram: 1 0 0 0 0 0 0 0 0 0

Total # of neighbors = 256
Ave neighs/atom = 64
Neighbor list builds = 0
Dangerous builds = 0
set atom * x 0.0 y 0.0 z 0.0
Setting atom values ...
  4 settings made for x
  4 settings made for y
  4 settings made for z
change_box all     x final 0 5.919991873701783 y final 0 5.9199918737017825 z final 0 3.235189872051901      xy final 5.079755775655379e-18 xz final -2.9273426818284e-16 yz final 1.4888629702031157e-16 units box
Changing box ...
  triclinic box = (0 0 0) to (5.9199919 5.919519 3.2346743) with tilt (1.2378005e-17 -1.5160523e-17 3.1766031e-17)
  triclinic box = (0 0 0) to (5.9199919 5.9199919 3.2346743) with tilt (1.2378005e-17 -1.5160523e-17 3.1766031e-17)
  triclinic box = (0 0 0) to (5.9199919 5.9199919 3.2351899) with tilt (1.2378005e-17 -1.5160523e-17 3.1766031e-17)
  triclinic box = (0 0 0) to (5.9199919 5.9199919 3.2351899) with tilt (5.0797558e-18 -1.5160523e-17 3.1766031e-17)
  triclinic box = (0 0 0) to (5.9199919 5.9199919 3.2351899) with tilt (5.0797558e-18 -2.9273427e-16 3.1766031e-17)
  triclinic box = (0 0 0) to (5.9199919 5.9199919 3.2351899) with tilt (5.0797558e-18 -2.9273427e-16 1.488863e-16)
echo none
run 0
WARNING: No fixes with time integration, atoms won't move (src/verlet.cpp:60)
Per MPI rank memory allocation (min/avg/max) = 8.633 | 8.633 | 8.633 Mbytes
    PotEng          Pxx           E_mol          E_coul    
-12.340573      1.8630416      0              0            
Loop time of 5.25e-07 on 1 procs for 0 steps with 4 atoms

190.5% CPU use with 1 MPI tasks x 1 OpenMP threads

MPI task timing breakdown:
Section |  min time  |  avg time  |  max time  |%varavg| %total
---------------------------------------------------------------
Pair    | 0          | 0          | 0          |   0.0 |  0.00
Neigh   | 0          | 0          | 0          |   0.0 |  0.00
Comm    | 0          | 0          | 0          |   0.0 |  0.00
Output  | 0          | 0          | 0          |   0.0 |  0.00
Modify  | 0          | 0          | 0          |   0.0 |  0.00
Other   |            | 5.25e-07   |            |       |100.00

Nlocal:              4 ave           4 max           4 min
Histogram: 1 0 0 0 0 0 0 0 0 0
Nghost:            281 ave         281 max         281 min
Histogram: 1 0 0 0 0 0 0 0 0 0
Neighs:            128 ave         128 max         128 min
Histogram: 1 0 0 0 0 0 0 0 0 0
FullNghs:          256 ave         256 max         256 min
Histogram: 1 0 0 0 0 0 0 0 0 0

Total # of neighbors = 256
Ave neighs/atom = 64
Neighbor list builds = 0
Dangerous builds = 0
Total wall time: 0:00:00
