LAMMPS (29 Aug 2024)
OMP_NUM_THREADS environment is not set. Defaulting to 1 thread. (src/comm.cpp:98)
  using 1 OpenMP thread(s) per MPI task
units metal
atom_style atomic
atom_modify map array sort 0 0
boundary p p p
box tilt large

The 'box' command has been removed and will be ignored

region cell prism    0 6.746314348807233 0 5.9199918737017825 0 61.93793508197956     -1.2619239358510517e-16 0.0 0.0     units box
create_box 1 cell
Created triclinic box = (0 0 0) to (6.7463143 5.9199919 61.937935) with tilt (-1.2619239e-16 0 0)
  1 by 1 by 1 MPI processor grid
echo none
Created 48 atoms
  using lattice units in triclinic box = (0 0 0) to (6.7463143 5.9199919 61.937935) with tilt (-1.2619239e-16 0 0)
  create_atoms CPU = 0.000 seconds
Setting atom values ...
  1 settings made for type
Setting atom values ...
  1 settings made for type
Setting atom values ...
  1 settings made for type
Setting atom values ...
  1 settings made for type
Setting atom values ...
  1 settings made for type
Setting atom values ...
  1 settings made for type
Setting atom values ...
  1 settings made for type
Setting atom values ...
  1 settings made for type
Setting atom values ...
  1 settings made for type
Setting atom values ...
  1 settings made for type
Setting atom values ...
  1 settings made for type
Setting atom values ...
  1 settings made for type
Setting atom values ...
  1 settings made for type
Setting atom values ...
  1 settings made for type
Setting atom values ...
  1 settings made for type
Setting atom values ...
  1 settings made for type
Setting atom values ...
  1 settings made for type
Setting atom values ...
  1 settings made for type
Setting atom values ...
  1 settings made for type
Setting atom values ...
  1 settings made for type
Setting atom values ...
  1 settings made for type
Setting atom values ...
  1 settings made for type
Setting atom values ...
  1 settings made for type
Setting atom values ...
  1 settings made for type
Setting atom values ...
  1 settings made for type
Setting atom values ...
  1 settings made for type
Setting atom values ...
  1 settings made for type
Setting atom values ...
  1 settings made for type
Setting atom values ...
  1 settings made for type
Setting atom values ...
  1 settings made for type
Setting atom values ...
  1 settings made for type
Setting atom values ...
  1 settings made for type
Setting atom values ...
  1 settings made for type
Setting atom values ...
  1 settings made for type
Setting atom values ...
  1 settings made for type
Setting atom values ...
  1 settings made for type
Setting atom values ...
  1 settings made for type
Setting atom values ...
  1 settings made for type
Setting atom values ...
  1 settings made for type
Setting atom values ...
  1 settings made for type
Setting atom values ...
  1 settings made for type
Setting atom values ...
  1 settings made for type
Setting atom values ...
  1 settings made for type
Setting atom values ...
  1 settings made for type
Setting atom values ...
  1 settings made for type
Setting atom values ...
  1 settings made for type
Setting atom values ...
  1 settings made for type
Setting atom values ...
  1 settings made for type
pair_style meam
pair_coeff * * <HOME>/projects/beta-sn-elasticity/surface_gb/meam_potentials/library.Sn.Ravelo1997.meam Sn <HOME>/projects/beta-sn-elasticity/surface_gb/meam_potentials/Sn.Ravelo1997.meam Sn
compute pe_peratom all pe/atom
mass 1 118.709999969462515423401782754809
variable pxx equal pxx
variable pyy equal pyy
variable pzz equal pzz
variable pxy equal pxy
variable pxz equal pxz
variable pyz equal pyz
thermo_style custom pe pxx emol ecoul
variable fx atom fx
variable fy atom fy
variable fz atom fz
variable pe equal pe
neigh_modify delay 0 every 1 check yes
echo none
run 0
WARNING: No fixes with time integration, atoms won't move (src/verlet.cpp:60)
Neighbor list info ...
  update: every = 1 steps, delay = 0 steps, check = yes
  max neighbors/atom: 2000, page size: 100000
  master list distance cutoff = 7.5
  ghost atom cutoff = 7.5
  binsize = 3.75, bins = 2 2 17
  2 neighbor lists, perpetual/occasional/extra = 2 0 0
  (1) pair meam, perpetual
      attributes: full, newton on
      pair build: full/bin/atomonly
      stencil: full/bin/3d
      bin: standard
  (2) pair meam, perpetual, half/full from (1)
      attributes: half, newton on
      pair build: halffull/newton/tri
      stencil: none
      bin: none
Per MPI rank memory allocation (min/avg/max) = 8.618 | 8.618 | 8.618 Mbytes
    PotEng          Pxx           E_mol          E_coul    
-143.79958      574.69105      0              0            
Loop time of 4.9e-07 on 1 procs for 0 steps with 48 atoms

204.1% CPU use with 1 MPI tasks x 1 OpenMP threads

MPI task timing breakdown:
Section |  min time  |  avg time  |  max time  |%varavg| %total
---------------------------------------------------------------
Pair    | 0          | 0          | 0          |   0.0 |  0.00
Neigh   | 0          | 0          | 0          |   0.0 |  0.00
Comm    | 0          | 0          | 0          |   0.0 |  0.00
Output  | 0          | 0          | 0          |   0.0 |  0.00
Modify  | 0          | 0          | 0          |   0.0 |  0.00
Other   |            | 4.9e-07    |            |       |100.00

Nlocal:             48 ave          48 max          48 min
Histogram: 1 0 0 0 0 0 0 0 0 0
Nghost:            498 ave         498 max         498 min
Histogram: 1 0 0 0 0 0 0 0 0 0
Neighs:           1416 ave        1416 max        1416 min
Histogram: 1 0 0 0 0 0 0 0 0 0
FullNghs:         2832 ave        2832 max        2832 min
Histogram: 1 0 0 0 0 0 0 0 0 0

Total # of neighbors = 2832
Ave neighs/atom = 59
Neighbor list builds = 0
Dangerous builds = 0
set atom * x 0.0 y 0.0 z 0.0
Setting atom values ...
  48 settings made for x
  48 settings made for y
  48 settings made for z
change_box all     x final 0 6.746314348807233 y final 0 5.9199918737017825 z final 0 61.93793508197956      xy final -1.2619239358510517e-16 xz final 0.0 yz final 0.0 units box
Changing box ...
  triclinic box = (0 0 0) to (6.7463143 5.9199919 61.937935) with tilt (-1.2619239e-16 0 0)
  triclinic box = (0 0 0) to (6.7463143 5.9199919 61.937935) with tilt (-1.2619239e-16 0 0)
  triclinic box = (0 0 0) to (6.7463143 5.9199919 61.937935) with tilt (-1.2619239e-16 0 0)
  triclinic box = (0 0 0) to (6.7463143 5.9199919 61.937935) with tilt (-1.2619239e-16 0 0)
  triclinic box = (0 0 0) to (6.7463143 5.9199919 61.937935) with tilt (-1.2619239e-16 0 0)
  triclinic box = (0 0 0) to (6.7463143 5.9199919 61.937935) with tilt (-1.2619239e-16 0 0)
echo none
run 0
WARNING: No fixes with time integration, atoms won't move (src/verlet.cpp:60)
Per MPI rank memory allocation (min/avg/max) = 8.743 | 8.743 | 8.743 Mbytes
    PotEng          Pxx           E_mol          E_coul    
-143.82634      450.93646      0              0            
Loop time of 4.77e-07 on 1 procs for 0 steps with 48 atoms

0.0% CPU use with 1 MPI tasks x 1 OpenMP threads

MPI task timing breakdown:
Section |  min time  |  avg time  |  max time  |%varavg| %total
---------------------------------------------------------------
Pair    | 0          | 0          | 0          |   0.0 |  0.00
Neigh   | 0          | 0          | 0          |   0.0 |  0.00
Comm    | 0          | 0          | 0          |   0.0 |  0.00
Output  | 0          | 0          | 0          |   0.0 |  0.00
Modify  | 0          | 0          | 0          |   0.0 |  0.00
Other   |            | 4.77e-07   |            |       |100.00

Nlocal:             48 ave          48 max          48 min
Histogram: 1 0 0 0 0 0 0 0 0 0
Nghost:            498 ave         498 max         498 min
Histogram: 1 0 0 0 0 0 0 0 0 0
Neighs:           1416 ave        1416 max        1416 min
Histogram: 1 0 0 0 0 0 0 0 0 0
FullNghs:         2832 ave        2832 max        2832 min
Histogram: 1 0 0 0 0 0 0 0 0 0

Total # of neighbors = 2832
Ave neighs/atom = 59
Neighbor list builds = 0
Dangerous builds = 0
set atom * x 0.0 y 0.0 z 0.0
Setting atom values ...
  48 settings made for x
  48 settings made for y
  48 settings made for z
change_box all     x final 0 6.746314348807233 y final 0 5.9199918737017825 z final 0 61.93793508197956      xy final -1.2619239358510517e-16 xz final 0.0 yz final 0.0 units box
Changing box ...
  triclinic box = (0 0 0) to (6.7463143 5.9199919 61.937935) with tilt (-1.2619239e-16 0 0)
  triclinic box = (0 0 0) to (6.7463143 5.9199919 61.937935) with tilt (-1.2619239e-16 0 0)
  triclinic box = (0 0 0) to (6.7463143 5.9199919 61.937935) with tilt (-1.2619239e-16 0 0)
  triclinic box = (0 0 0) to (6.7463143 5.9199919 61.937935) with tilt (-1.2619239e-16 0 0)
  triclinic box = (0 0 0) to (6.7463143 5.9199919 61.937935) with tilt (-1.2619239e-16 0 0)
  triclinic box = (0 0 0) to (6.7463143 5.9199919 61.937935) with tilt (-1.2619239e-16 0 0)
echo none
run 0
WARNING: No fixes with time integration, atoms won't move (src/verlet.cpp:60)
Per MPI rank memory allocation (min/avg/max) = 8.743 | 8.743 | 8.743 Mbytes
    PotEng          Pxx           E_mol          E_coul    
-143.92775     -250.30761      0              0            
Loop time of 4.91e-07 on 1 procs for 0 steps with 48 atoms

203.7% CPU use with 1 MPI tasks x 1 OpenMP threads

MPI task timing breakdown:
Section |  min time  |  avg time  |  max time  |%varavg| %total
---------------------------------------------------------------
Pair    | 0          | 0          | 0          |   0.0 |  0.00
Neigh   | 0          | 0          | 0          |   0.0 |  0.00
Comm    | 0          | 0          | 0          |   0.0 |  0.00
Output  | 0          | 0          | 0          |   0.0 |  0.00
Modify  | 0          | 0          | 0          |   0.0 |  0.00
Other   |            | 4.91e-07   |            |       |100.00

Nlocal:             48 ave          48 max          48 min
Histogram: 1 0 0 0 0 0 0 0 0 0
Nghost:            498 ave         498 max         498 min
Histogram: 1 0 0 0 0 0 0 0 0 0
Neighs:           1416 ave        1416 max        1416 min
Histogram: 1 0 0 0 0 0 0 0 0 0
FullNghs:         2832 ave        2832 max        2832 min
Histogram: 1 0 0 0 0 0 0 0 0 0

Total # of neighbors = 2832
Ave neighs/atom = 59
Neighbor list builds = 0
Dangerous builds = 0
set atom * x 0.0 y 0.0 z 0.0
Setting atom values ...
  48 settings made for x
  48 settings made for y
  48 settings made for z
change_box all     x final 0 6.746314348807233 y final 0 5.9199918737017825 z final 0 61.93793508197956      xy final -1.2619239358510517e-16 xz final 0.0 yz final 0.0 units box
Changing box ...
  triclinic box = (0 0 0) to (6.7463143 5.9199919 61.937935) with tilt (-1.2619239e-16 0 0)
  triclinic box = (0 0 0) to (6.7463143 5.9199919 61.937935) with tilt (-1.2619239e-16 0 0)
  triclinic box = (0 0 0) to (6.7463143 5.9199919 61.937935) with tilt (-1.2619239e-16 0 0)
  triclinic box = (0 0 0) to (6.7463143 5.9199919 61.937935) with tilt (-1.2619239e-16 0 0)
  triclinic box = (0 0 0) to (6.7463143 5.9199919 61.937935) with tilt (-1.2619239e-16 0 0)
  triclinic box = (0 0 0) to (6.7463143 5.9199919 61.937935) with tilt (-1.2619239e-16 0 0)
echo none
run 0
WARNING: No fixes with time integration, atoms won't move (src/verlet.cpp:60)
Per MPI rank memory allocation (min/avg/max) = 8.743 | 8.743 | 8.743 Mbytes
    PotEng          Pxx           E_mol          E_coul    
-143.93808     -481.48227      0              0            
Loop time of 4.45e-07 on 1 procs for 0 steps with 48 atoms

224.7% CPU use with 1 MPI tasks x 1 OpenMP threads

MPI task timing breakdown:
Section |  min time  |  avg time  |  max time  |%varavg| %total
---------------------------------------------------------------
Pair    | 0          | 0          | 0          |   0.0 |  0.00
Neigh   | 0          | 0          | 0          |   0.0 |  0.00
Comm    | 0          | 0          | 0          |   0.0 |  0.00
Output  | 0          | 0          | 0          |   0.0 |  0.00
Modify  | 0          | 0          | 0          |   0.0 |  0.00
Other   |            | 4.45e-07   |            |       |100.00

Nlocal:             48 ave          48 max          48 min
Histogram: 1 0 0 0 0 0 0 0 0 0
Nghost:            498 ave         498 max         498 min
Histogram: 1 0 0 0 0 0 0 0 0 0
Neighs:           1416 ave        1416 max        1416 min
Histogram: 1 0 0 0 0 0 0 0 0 0
FullNghs:         2832 ave        2832 max        2832 min
Histogram: 1 0 0 0 0 0 0 0 0 0

Total # of neighbors = 2832
Ave neighs/atom = 59
Neighbor list builds = 0
Dangerous builds = 0
set atom * x 0.0 y 0.0 z 0.0
Setting atom values ...
  48 settings made for x
  48 settings made for y
  48 settings made for z
change_box all     x final 0 6.746314348807233 y final 0 5.9199918737017825 z final 0 61.93793508197956      xy final -1.2619239358510517e-16 xz final 0.0 yz final 0.0 units box
Changing box ...
  triclinic box = (0 0 0) to (6.7463143 5.9199919 61.937935) with tilt (-1.2619239e-16 0 0)
  triclinic box = (0 0 0) to (6.7463143 5.9199919 61.937935) with tilt (-1.2619239e-16 0 0)
  triclinic box = (0 0 0) to (6.7463143 5.9199919 61.937935) with tilt (-1.2619239e-16 0 0)
  triclinic box = (0 0 0) to (6.7463143 5.9199919 61.937935) with tilt (-1.2619239e-16 0 0)
  triclinic box = (0 0 0) to (6.7463143 5.9199919 61.937935) with tilt (-1.2619239e-16 0 0)
  triclinic box = (0 0 0) to (6.7463143 5.9199919 61.937935) with tilt (-1.2619239e-16 0 0)
echo none
run 0
WARNING: No fixes with time integration, atoms won't move (src/verlet.cpp:60)
Per MPI rank memory allocation (min/avg/max) = 8.743 | 8.743 | 8.743 Mbytes
    PotEng          Pxx           E_mol          E_coul    
-143.95817     -1117.1103      0              0            
Loop time of 4.54e-07 on 1 procs for 0 steps with 48 atoms

220.3% CPU use with 1 MPI tasks x 1 OpenMP threads

MPI task timing breakdown:
Section |  min time  |  avg time  |  max time  |%varavg| %total
---------------------------------------------------------------
Pair    | 0          | 0          | 0          |   0.0 |  0.00
Neigh   | 0          | 0          | 0          |   0.0 |  0.00
Comm    | 0          | 0          | 0          |   0.0 |  0.00
Output  | 0          | 0          | 0          |   0.0 |  0.00
Modify  | 0          | 0          | 0          |   0.0 |  0.00
Other   |            | 4.54e-07   |            |       |100.00

Nlocal:             48 ave          48 max          48 min
Histogram: 1 0 0 0 0 0 0 0 0 0
Nghost:            498 ave         498 max         498 min
Histogram: 1 0 0 0 0 0 0 0 0 0
Neighs:           1416 ave        1416 max        1416 min
Histogram: 1 0 0 0 0 0 0 0 0 0
FullNghs:         2832 ave        2832 max        2832 min
Histogram: 1 0 0 0 0 0 0 0 0 0

Total # of neighbors = 2832
Ave neighs/atom = 59
Neighbor list builds = 0
Dangerous builds = 0
set atom * x 0.0 y 0.0 z 0.0
Setting atom values ...
  48 settings made for x
  48 settings made for y
  48 settings made for z
change_box all     x final 0 6.746314348807233 y final 0 5.9199918737017825 z final 0 61.93793508197956      xy final -1.2619239358510517e-16 xz final 0.0 yz final 0.0 units box
Changing box ...
  triclinic box = (0 0 0) to (6.7463143 5.9199919 61.937935) with tilt (-1.2619239e-16 0 0)
  triclinic box = (0 0 0) to (6.7463143 5.9199919 61.937935) with tilt (-1.2619239e-16 0 0)
  triclinic box = (0 0 0) to (6.7463143 5.9199919 61.937935) with tilt (-1.2619239e-16 0 0)
  triclinic box = (0 0 0) to (6.7463143 5.9199919 61.937935) with tilt (-1.2619239e-16 0 0)
  triclinic box = (0 0 0) to (6.7463143 5.9199919 61.937935) with tilt (-1.2619239e-16 0 0)
  triclinic box = (0 0 0) to (6.7463143 5.9199919 61.937935) with tilt (-1.2619239e-16 0 0)
echo none
run 0
WARNING: No fixes with time integration, atoms won't move (src/verlet.cpp:60)
Per MPI rank memory allocation (min/avg/max) = 8.743 | 8.743 | 8.743 Mbytes
    PotEng          Pxx           E_mol          E_coul    
-143.97402     -1745.3291      0              0            
Loop time of 5.02e-07 on 1 procs for 0 steps with 48 atoms

199.2% CPU use with 1 MPI tasks x 1 OpenMP threads

MPI task timing breakdown:
Section |  min time  |  avg time  |  max time  |%varavg| %total
---------------------------------------------------------------
Pair    | 0          | 0          | 0          |   0.0 |  0.00
Neigh   | 0          | 0          | 0          |   0.0 |  0.00
Comm    | 0          | 0          | 0          |   0.0 |  0.00
Output  | 0          | 0          | 0          |   0.0 |  0.00
Modify  | 0          | 0          | 0          |   0.0 |  0.00
Other   |            | 5.02e-07   |            |       |100.00

Nlocal:             48 ave          48 max          48 min
Histogram: 1 0 0 0 0 0 0 0 0 0
Nghost:            498 ave         498 max         498 min
Histogram: 1 0 0 0 0 0 0 0 0 0
Neighs:           1416 ave        1416 max        1416 min
Histogram: 1 0 0 0 0 0 0 0 0 0
FullNghs:         2832 ave        2832 max        2832 min
Histogram: 1 0 0 0 0 0 0 0 0 0

Total # of neighbors = 2832
Ave neighs/atom = 59
Neighbor list builds = 0
Dangerous builds = 0
set atom * x 0.0 y 0.0 z 0.0
Setting atom values ...
  48 settings made for x
  48 settings made for y
  48 settings made for z
change_box all     x final 0 6.746314348807233 y final 0 5.9199918737017825 z final 0 61.93793508197956      xy final -1.2619239358510517e-16 xz final 0.0 yz final 0.0 units box
Changing box ...
  triclinic box = (0 0 0) to (6.7463143 5.9199919 61.937935) with tilt (-1.2619239e-16 0 0)
  triclinic box = (0 0 0) to (6.7463143 5.9199919 61.937935) with tilt (-1.2619239e-16 0 0)
  triclinic box = (0 0 0) to (6.7463143 5.9199919 61.937935) with tilt (-1.2619239e-16 0 0)
  triclinic box = (0 0 0) to (6.7463143 5.9199919 61.937935) with tilt (-1.2619239e-16 0 0)
  triclinic box = (0 0 0) to (6.7463143 5.9199919 61.937935) with tilt (-1.2619239e-16 0 0)
  triclinic box = (0 0 0) to (6.7463143 5.9199919 61.937935) with tilt (-1.2619239e-16 0 0)
echo none
run 0
WARNING: No fixes with time integration, atoms won't move (src/verlet.cpp:60)
Per MPI rank memory allocation (min/avg/max) = 8.743 | 8.743 | 8.743 Mbytes
    PotEng          Pxx           E_mol          E_coul    
-143.98476     -2171.3153      0              0            
Loop time of 4.9e-07 on 1 procs for 0 steps with 48 atoms

204.1% CPU use with 1 MPI tasks x 1 OpenMP threads

MPI task timing breakdown:
Section |  min time  |  avg time  |  max time  |%varavg| %total
---------------------------------------------------------------
Pair    | 0          | 0          | 0          |   0.0 |  0.00
Neigh   | 0          | 0          | 0          |   0.0 |  0.00
Comm    | 0          | 0          | 0          |   0.0 |  0.00
Output  | 0          | 0          | 0          |   0.0 |  0.00
Modify  | 0          | 0          | 0          |   0.0 |  0.00
Other   |            | 4.9e-07    |            |       |100.00

Nlocal:             48 ave          48 max          48 min
Histogram: 1 0 0 0 0 0 0 0 0 0
Nghost:            498 ave         498 max         498 min
Histogram: 1 0 0 0 0 0 0 0 0 0
Neighs:           1416 ave        1416 max        1416 min
Histogram: 1 0 0 0 0 0 0 0 0 0
FullNghs:         2832 ave        2832 max        2832 min
Histogram: 1 0 0 0 0 0 0 0 0 0

Total # of neighbors = 2832
Ave neighs/atom = 59
Neighbor list builds = 0
Dangerous builds = 0
set atom * x 0.0 y 0.0 z 0.0
Setting atom values ...
  48 settings made for x
  48 settings made for y
  48 settings made for z
change_box all     x final 0 6.746314348807233 y final 0 5.9199918737017825 z final 0 61.93793508197956      xy final -1.2619239358510517e-16 xz final 0.0 yz final 0.0 units box
Changing box ...
  triclinic box = (0 0 0) to (6.7463143 5.9199919 61.937935) with tilt (-1.2619239e-16 0 0)
  triclinic box = (0 0 0) to (6.7463143 5.9199919 61.937935) with tilt (-1.2619239e-16 0 0)
  triclinic box = (0 0 0) to (6.7463143 5.9199919 61.937935) with tilt (-1.2619239e-16 0 0)
  triclinic box = (0 0 0) to (6.7463143 5.9199919 61.937935) with tilt (-1.2619239e-16 0 0)
  triclinic box = (0 0 0) to (6.7463143 5.9199919 61.937935) with tilt (-1.2619239e-16 0 0)
  triclinic box = (0 0 0) to (6.7463143 5.9199919 61.937935) with tilt (-1.2619239e-16 0 0)
echo none
run 0
WARNING: No fixes with time integration, atoms won't move (src/verlet.cpp:60)
Per MPI rank memory allocation (min/avg/max) = 8.743 | 8.743 | 8.743 Mbytes
    PotEng          Pxx           E_mol          E_coul    
-143.98936     -2281.4913      0              0            
Loop time of 6.43e-07 on 1 procs for 0 steps with 48 atoms

155.5% CPU use with 1 MPI tasks x 1 OpenMP threads

MPI task timing breakdown:
Section |  min time  |  avg time  |  max time  |%varavg| %total
---------------------------------------------------------------
Pair    | 0          | 0          | 0          |   0.0 |  0.00
Neigh   | 0          | 0          | 0          |   0.0 |  0.00
Comm    | 0          | 0          | 0          |   0.0 |  0.00
Output  | 0          | 0          | 0          |   0.0 |  0.00
Modify  | 0          | 0          | 0          |   0.0 |  0.00
Other   |            | 6.43e-07   |            |       |100.00

Nlocal:             48 ave          48 max          48 min
Histogram: 1 0 0 0 0 0 0 0 0 0
Nghost:            498 ave         498 max         498 min
Histogram: 1 0 0 0 0 0 0 0 0 0
Neighs:           1416 ave        1416 max        1416 min
Histogram: 1 0 0 0 0 0 0 0 0 0
FullNghs:         2832 ave        2832 max        2832 min
Histogram: 1 0 0 0 0 0 0 0 0 0

Total # of neighbors = 2832
Ave neighs/atom = 59
Neighbor list builds = 0
Dangerous builds = 0
set atom * x 0.0 y 0.0 z 0.0
Setting atom values ...
  48 settings made for x
  48 settings made for y
  48 settings made for z
change_box all     x final 0 6.746314348807233 y final 0 5.9199918737017825 z final 0 61.93793508197956      xy final -1.2619239358510517e-16 xz final 0.0 yz final 0.0 units box
Changing box ...
  triclinic box = (0 0 0) to (6.7463143 5.9199919 61.937935) with tilt (-1.2619239e-16 0 0)
  triclinic box = (0 0 0) to (6.7463143 5.9199919 61.937935) with tilt (-1.2619239e-16 0 0)
  triclinic box = (0 0 0) to (6.7463143 5.9199919 61.937935) with tilt (-1.2619239e-16 0 0)
  triclinic box = (0 0 0) to (6.7463143 5.9199919 61.937935) with tilt (-1.2619239e-16 0 0)
  triclinic box = (0 0 0) to (6.7463143 5.9199919 61.937935) with tilt (-1.2619239e-16 0 0)
  triclinic box = (0 0 0) to (6.7463143 5.9199919 61.937935) with tilt (-1.2619239e-16 0 0)
echo none
run 0
WARNING: No fixes with time integration, atoms won't move (src/verlet.cpp:60)
Per MPI rank memory allocation (min/avg/max) = 8.743 | 8.743 | 8.743 Mbytes
    PotEng          Pxx           E_mol          E_coul    
-143.99139     -2277.9118      0              0            
Loop time of 4.52e-07 on 1 procs for 0 steps with 48 atoms

221.2% CPU use with 1 MPI tasks x 1 OpenMP threads

MPI task timing breakdown:
Section |  min time  |  avg time  |  max time  |%varavg| %total
---------------------------------------------------------------
Pair    | 0          | 0          | 0          |   0.0 |  0.00
Neigh   | 0          | 0          | 0          |   0.0 |  0.00
Comm    | 0          | 0          | 0          |   0.0 |  0.00
Output  | 0          | 0          | 0          |   0.0 |  0.00
Modify  | 0          | 0          | 0          |   0.0 |  0.00
Other   |            | 4.52e-07   |            |       |100.00

Nlocal:             48 ave          48 max          48 min
Histogram: 1 0 0 0 0 0 0 0 0 0
Nghost:            498 ave         498 max         498 min
Histogram: 1 0 0 0 0 0 0 0 0 0
Neighs:           1416 ave        1416 max        1416 min
Histogram: 1 0 0 0 0 0 0 0 0 0
FullNghs:         2832 ave        2832 max        2832 min
Histogram: 1 0 0 0 0 0 0 0 0 0

Total # of neighbors = 2832
Ave neighs/atom = 59
Neighbor list builds = 0
Dangerous builds = 0
set atom * x 0.0 y 0.0 z 0.0
Setting atom values ...
  48 settings made for x
  48 settings made for y
  48 settings made for z
change_box all     x final 0 6.746314348807233 y final 0 5.9199918737017825 z final 0 61.93793508197956      xy final -1.2619239358510517e-16 xz final 0.0 yz final 0.0 units box
Changing box ...
  triclinic box = (0 0 0) to (6.7463143 5.9199919 61.937935) with tilt (-1.2619239e-16 0 0)
  triclinic box = (0 0 0) to (6.7463143 5.9199919 61.937935) with tilt (-1.2619239e-16 0 0)
  triclinic box = (0 0 0) to (6.7463143 5.9199919 61.937935) with tilt (-1.2619239e-16 0 0)
  triclinic box = (0 0 0) to (6.7463143 5.9199919 61.937935) with tilt (-1.2619239e-16 0 0)
  triclinic box = (0 0 0) to (6.7463143 5.9199919 61.937935) with tilt (-1.2619239e-16 0 0)
  triclinic box = (0 0 0) to (6.7463143 5.9199919 61.937935) with tilt (-1.2619239e-16 0 0)
echo none
run 0
WARNING: No fixes with time integration, atoms won't move (src/verlet.cpp:60)
Per MPI rank memory allocation (min/avg/max) = 8.743 | 8.743 | 8.743 Mbytes
    PotEng          Pxx           E_mol          E_coul    
-143.9937      -2266.7309      0              0            
Loop time of 5.6e-07 on 1 procs for 0 steps with 48 atoms

178.6% CPU use with 1 MPI tasks x 1 OpenMP threads

MPI task timing breakdown:
Section |  min time  |  avg time  |  max time  |%varavg| %total
---------------------------------------------------------------
Pair    | 0          | 0          | 0          |   0.0 |  0.00
Neigh   | 0          | 0          | 0          |   0.0 |  0.00
Comm    | 0          | 0          | 0          |   0.0 |  0.00
Output  | 0          | 0          | 0          |   0.0 |  0.00
Modify  | 0          | 0          | 0          |   0.0 |  0.00
Other   |            | 5.6e-07    |            |       |100.00

Nlocal:             48 ave          48 max          48 min
Histogram: 1 0 0 0 0 0 0 0 0 0
Nghost:            498 ave         498 max         498 min
Histogram: 1 0 0 0 0 0 0 0 0 0
Neighs:           1416 ave        1416 max        1416 min
Histogram: 1 0 0 0 0 0 0 0 0 0
FullNghs:         2832 ave        2832 max        2832 min
Histogram: 1 0 0 0 0 0 0 0 0 0

Total # of neighbors = 2832
Ave neighs/atom = 59
Neighbor list builds = 0
Dangerous builds = 0
set atom * x 0.0 y 0.0 z 0.0
Setting atom values ...
  48 settings made for x
  48 settings made for y
  48 settings made for z
change_box all     x final 0 6.746314348807233 y final 0 5.9199918737017825 z final 0 61.93793508197956      xy final -1.2619239358510517e-16 xz final 0.0 yz final 0.0 units box
Changing box ...
  triclinic box = (0 0 0) to (6.7463143 5.9199919 61.937935) with tilt (-1.2619239e-16 0 0)
  triclinic box = (0 0 0) to (6.7463143 5.9199919 61.937935) with tilt (-1.2619239e-16 0 0)
  triclinic box = (0 0 0) to (6.7463143 5.9199919 61.937935) with tilt (-1.2619239e-16 0 0)
  triclinic box = (0 0 0) to (6.7463143 5.9199919 61.937935) with tilt (-1.2619239e-16 0 0)
  triclinic box = (0 0 0) to (6.7463143 5.9199919 61.937935) with tilt (-1.2619239e-16 0 0)
  triclinic box = (0 0 0) to (6.7463143 5.9199919 61.937935) with tilt (-1.2619239e-16 0 0)
echo none
run 0
WARNING: No fixes with time integration, atoms won't move (src/verlet.cpp:60)
Per MPI rank memory allocation (min/avg/max) = 8.743 | 8.743 | 8.743 Mbytes
    PotEng          Pxx           E_mol          E_coul    
-143.99628     -2267.8738      0              0            
Loop time of 4.54e-07 on 1 procs for 0 steps with 48 atoms

220.3% CPU use with 1 MPI tasks x 1 OpenMP threads

MPI task timing breakdown:
Section |  min time  |  avg time  |  max time  |%varavg| %total
---------------------------------------------------------------
Pair    | 0          | 0          | 0          |   0.0 |  0.00
Neigh   | 0          | 0          | 0          |   0.0 |  0.00
Comm    | 0          | 0          | 0          |   0.0 |  0.00
Output  | 0          | 0          | 0          |   0.0 |  0.00
Modify  | 0          | 0          | 0          |   0.0 |  0.00
Other   |            | 4.54e-07   |            |       |100.00

Nlocal:             48 ave          48 max          48 min
Histogram: 1 0 0 0 0 0 0 0 0 0
Nghost:            498 ave         498 max         498 min
Histogram: 1 0 0 0 0 0 0 0 0 0
Neighs:           1416 ave        1416 max        1416 min
Histogram: 1 0 0 0 0 0 0 0 0 0
FullNghs:         2832 ave        2832 max        2832 min
Histogram: 1 0 0 0 0 0 0 0 0 0

Total # of neighbors = 2832
Ave neighs/atom = 59
Neighbor list builds = 0
Dangerous builds = 0
set atom * x 0.0 y 0.0 z 0.0
Setting atom values ...
  48 settings made for x
  48 settings made for y
  48 settings made for z
change_box all     x final 0 6.746314348807233 y final 0 5.9199918737017825 z final 0 61.93793508197956      xy final -1.2619239358510517e-16 xz final 0.0 yz final 0.0 units box
Changing box ...
  triclinic box = (0 0 0) to (6.7463143 5.9199919 61.937935) with tilt (-1.2619239e-16 0 0)
  triclinic box = (0 0 0) to (6.7463143 5.9199919 61.937935) with tilt (-1.2619239e-16 0 0)
  triclinic box = (0 0 0) to (6.7463143 5.9199919 61.937935) with tilt (-1.2619239e-16 0 0)
  triclinic box = (0 0 0) to (6.7463143 5.9199919 61.937935) with tilt (-1.2619239e-16 0 0)
  triclinic box = (0 0 0) to (6.7463143 5.9199919 61.937935) with tilt (-1.2619239e-16 0 0)
  triclinic box = (0 0 0) to (6.7463143 5.9199919 61.937935) with tilt (-1.2619239e-16 0 0)
echo none
run 0
WARNING: No fixes with time integration, atoms won't move (src/verlet.cpp:60)
Per MPI rank memory allocation (min/avg/max) = 8.743 | 8.743 | 8.743 Mbytes
    PotEng          Pxx           E_mol          E_coul    
-143.99791     -2278.2923      0              0            
Loop time of 4.52e-07 on 1 procs for 0 steps with 48 atoms

221.2% CPU use with 1 MPI tasks x 1 OpenMP threads

MPI task timing breakdown:
Section |  min time  |  avg time  |  max time  |%varavg| %total
---------------------------------------------------------------
Pair    | 0          | 0          | 0          |   0.0 |  0.00
Neigh   | 0          | 0          | 0          |   0.0 |  0.00
Comm    | 0          | 0          | 0          |   0.0 |  0.00
Output  | 0          | 0          | 0          |   0.0 |  0.00
Modify  | 0          | 0          | 0          |   0.0 |  0.00
Other   |            | 4.52e-07   |            |       |100.00

Nlocal:             48 ave          48 max          48 min
Histogram: 1 0 0 0 0 0 0 0 0 0
Nghost:            498 ave         498 max         498 min
Histogram: 1 0 0 0 0 0 0 0 0 0
Neighs:           1416 ave        1416 max        1416 min
Histogram: 1 0 0 0 0 0 0 0 0 0
FullNghs:         2832 ave        2832 max        2832 min
Histogram: 1 0 0 0 0 0 0 0 0 0

Total # of neighbors = 2832
Ave neighs/atom = 59
Neighbor list builds = 0
Dangerous builds = 0
set atom * x 0.0 y 0.0 z 0.0
Setting atom values ...
  48 settings made for x
  48 settings made for y
  48 settings made for z
change_box all     x final 0 6.746314348807233 y final 0 5.9199918737017825 z final 0 61.93793508197956      xy final -1.2619239358510517e-16 xz final 0.0 yz final 0.0 units box
Changing box ...
  triclinic box = (0 0 0) to (6.7463143 5.9199919 61.937935) with tilt (-1.2619239e-16 0 0)
  triclinic box = (0 0 0) to (6.7463143 5.9199919 61.937935) with tilt (-1.2619239e-16 0 0)
  triclinic box = (0 0 0) to (6.7463143 5.9199919 61.937935) with tilt (-1.2619239e-16 0 0)
  triclinic box = (0 0 0) to (6.7463143 5.9199919 61.937935) with tilt (-1.2619239e-16 0 0)
  triclinic box = (0 0 0) to (6.7463143 5.9199919 61.937935) with tilt (-1.2619239e-16 0 0)
  triclinic box = (0 0 0) to (6.7463143 5.9199919 61.937935) with tilt (-1.2619239e-16 0 0)
echo none
run 0
WARNING: No fixes with time integration, atoms won't move (src/verlet.cpp:60)
Per MPI rank memory allocation (min/avg/max) = 8.743 | 8.743 | 8.743 Mbytes
    PotEng          Pxx           E_mol          E_coul    
-143.99891     -2278.4049      0              0            
Loop time of 4.99e-07 on 1 procs for 0 steps with 48 atoms

200.4% CPU use with 1 MPI tasks x 1 OpenMP threads

MPI task timing breakdown:
Section |  min time  |  avg time  |  max time  |%varavg| %total
---------------------------------------------------------------
Pair    | 0          | 0          | 0          |   0.0 |  0.00
Neigh   | 0          | 0          | 0          |   0.0 |  0.00
Comm    | 0          | 0          | 0          |   0.0 |  0.00
Output  | 0          | 0          | 0          |   0.0 |  0.00
Modify  | 0          | 0          | 0          |   0.0 |  0.00
Other   |            | 4.99e-07   |            |       |100.00

Nlocal:             48 ave          48 max          48 min
Histogram: 1 0 0 0 0 0 0 0 0 0
Nghost:            498 ave         498 max         498 min
Histogram: 1 0 0 0 0 0 0 0 0 0
Neighs:           1416 ave        1416 max        1416 min
Histogram: 1 0 0 0 0 0 0 0 0 0
FullNghs:         2832 ave        2832 max        2832 min
Histogram: 1 0 0 0 0 0 0 0 0 0

Total # of neighbors = 2832
Ave neighs/atom = 59
Neighbor list builds = 0
Dangerous builds = 0
set atom * x 0.0 y 0.0 z 0.0
Setting atom values ...
  48 settings made for x
  48 settings made for y
  48 settings made for z
change_box all     x final 0 6.746314348807233 y final 0 5.9199918737017825 z final 0 61.93793508197956      xy final -1.2619239358510517e-16 xz final 0.0 yz final 0.0 units box
Changing box ...
  triclinic box = (0 0 0) to (6.7463143 5.9199919 61.937935) with tilt (-1.2619239e-16 0 0)
  triclinic box = (0 0 0) to (6.7463143 5.9199919 61.937935) with tilt (-1.2619239e-16 0 0)
  triclinic box = (0 0 0) to (6.7463143 5.9199919 61.937935) with tilt (-1.2619239e-16 0 0)
  triclinic box = (0 0 0) to (6.7463143 5.9199919 61.937935) with tilt (-1.2619239e-16 0 0)
  triclinic box = (0 0 0) to (6.7463143 5.9199919 61.937935) with tilt (-1.2619239e-16 0 0)
  triclinic box = (0 0 0) to (6.7463143 5.9199919 61.937935) with tilt (-1.2619239e-16 0 0)
echo none
run 0
WARNING: No fixes with time integration, atoms won't move (src/verlet.cpp:60)
Per MPI rank memory allocation (min/avg/max) = 8.743 | 8.743 | 8.743 Mbytes
    PotEng          Pxx           E_mol          E_coul    
-144           -2256.7099      0              0            
Loop time of 4.48e-07 on 1 procs for 0 steps with 48 atoms

223.2% CPU use with 1 MPI tasks x 1 OpenMP threads

MPI task timing breakdown:
Section |  min time  |  avg time  |  max time  |%varavg| %total
---------------------------------------------------------------
Pair    | 0          | 0          | 0          |   0.0 |  0.00
Neigh   | 0          | 0          | 0          |   0.0 |  0.00
Comm    | 0          | 0          | 0          |   0.0 |  0.00
Output  | 0          | 0          | 0          |   0.0 |  0.00
Modify  | 0          | 0          | 0          |   0.0 |  0.00
Other   |            | 4.48e-07   |            |       |100.00

Nlocal:             48 ave          48 max          48 min
Histogram: 1 0 0 0 0 0 0 0 0 0
Nghost:            498 ave         498 max         498 min
Histogram: 1 0 0 0 0 0 0 0 0 0
Neighs:           1416 ave        1416 max        1416 min
Histogram: 1 0 0 0 0 0 0 0 0 0
FullNghs:         2832 ave        2832 max        2832 min
Histogram: 1 0 0 0 0 0 0 0 0 0

Total # of neighbors = 2832
Ave neighs/atom = 59
Neighbor list builds = 0
Dangerous builds = 0
set atom * x 0.0 y 0.0 z 0.0
Setting atom values ...
  48 settings made for x
  48 settings made for y
  48 settings made for z
change_box all     x final 0 6.746314348807233 y final 0 5.9199918737017825 z final 0 61.93793508197956      xy final -1.2619239358510517e-16 xz final 0.0 yz final 0.0 units box
Changing box ...
  triclinic box = (0 0 0) to (6.7463143 5.9199919 61.937935) with tilt (-1.2619239e-16 0 0)
  triclinic box = (0 0 0) to (6.7463143 5.9199919 61.937935) with tilt (-1.2619239e-16 0 0)
  triclinic box = (0 0 0) to (6.7463143 5.9199919 61.937935) with tilt (-1.2619239e-16 0 0)
  triclinic box = (0 0 0) to (6.7463143 5.9199919 61.937935) with tilt (-1.2619239e-16 0 0)
  triclinic box = (0 0 0) to (6.7463143 5.9199919 61.937935) with tilt (-1.2619239e-16 0 0)
  triclinic box = (0 0 0) to (6.7463143 5.9199919 61.937935) with tilt (-1.2619239e-16 0 0)
echo none
run 0
WARNING: No fixes with time integration, atoms won't move (src/verlet.cpp:60)
Per MPI rank memory allocation (min/avg/max) = 8.743 | 8.743 | 8.743 Mbytes
    PotEng          Pxx           E_mol          E_coul    
-144.0013      -2199.1326      0              0            
Loop time of 5.09e-07 on 1 procs for 0 steps with 48 atoms

196.5% CPU use with 1 MPI tasks x 1 OpenMP threads

MPI task timing breakdown:
Section |  min time  |  avg time  |  max time  |%varavg| %total
---------------------------------------------------------------
Pair    | 0          | 0          | 0          |   0.0 |  0.00
Neigh   | 0          | 0          | 0          |   0.0 |  0.00
Comm    | 0          | 0          | 0          |   0.0 |  0.00
Output  | 0          | 0          | 0          |   0.0 |  0.00
Modify  | 0          | 0          | 0          |   0.0 |  0.00
Other   |            | 5.09e-07   |            |       |100.00

Nlocal:             48 ave          48 max          48 min
Histogram: 1 0 0 0 0 0 0 0 0 0
Nghost:            498 ave         498 max         498 min
Histogram: 1 0 0 0 0 0 0 0 0 0
Neighs:           1416 ave        1416 max        1416 min
Histogram: 1 0 0 0 0 0 0 0 0 0
FullNghs:         2832 ave        2832 max        2832 min
Histogram: 1 0 0 0 0 0 0 0 0 0

Total # of neighbors = 2832
Ave neighs/atom = 59
Neighbor list builds = 0
Dangerous builds = 0
set atom * x 0.0 y 0.0 z 0.0
Setting atom values ...
  48 settings made for x
  48 settings made for y
  48 settings made for z
change_box all     x final 0 6.746314348807233 y final 0 5.9199918737017825 z final 0 61.93793508197956      xy final -1.2619239358510517e-16 xz final 0.0 yz final 0.0 units box
Changing box ...
  triclinic box = (0 0 0) to (6.7463143 5.9199919 61.937935) with tilt (-1.2619239e-16 0 0)
  triclinic box = (0 0 0) to (6.7463143 5.9199919 61.937935) with tilt (-1.2619239e-16 0 0)
  triclinic box = (0 0 0) to (6.7463143 5.9199919 61.937935) with tilt (-1.2619239e-16 0 0)
  triclinic box = (0 0 0) to (6.7463143 5.9199919 61.937935) with tilt (-1.2619239e-16 0 0)
  triclinic box = (0 0 0) to (6.7463143 5.9199919 61.937935) with tilt (-1.2619239e-16 0 0)
  triclinic box = (0 0 0) to (6.7463143 5.9199919 61.937935) with tilt (-1.2619239e-16 0 0)
echo none
run 0
WARNING: No fixes with time integration, atoms won't move (src/verlet.cpp:60)
Per MPI rank memory allocation (min/avg/max) = 8.743 | 8.743 | 8.743 Mbytes
    PotEng          Pxx           E_mol          E_coul    
-144.00235     -2125.188       0              0            
Loop time of 5e-07 on 1 procs for 0 steps with 48 atoms

200.0% CPU use with 1 MPI tasks x 1 OpenMP threads

MPI task timing breakdown:
Section |  min time  |  avg time  |  max time  |%varavg| %total
---------------------------------------------------------------
Pair    | 0          | 0          | 0          |   0.0 |  0.00
Neigh   | 0          | 0          | 0          |   0.0 |  0.00
Comm    | 0          | 0          | 0          |   0.0 |  0.00
Output  | 0          | 0          | 0          |   0.0 |  0.00
Modify  | 0          | 0          | 0          |   0.0 |  0.00
Other   |            | 5e-07      |            |       |100.00

Nlocal:             48 ave          48 max          48 min
Histogram: 1 0 0 0 0 0 0 0 0 0
Nghost:            498 ave         498 max         498 min
Histogram: 1 0 0 0 0 0 0 0 0 0
Neighs:           1416 ave        1416 max        1416 min
Histogram: 1 0 0 0 0 0 0 0 0 0
FullNghs:         2832 ave        2832 max        2832 min
Histogram: 1 0 0 0 0 0 0 0 0 0

Total # of neighbors = 2832
Ave neighs/atom = 59
Neighbor list builds = 0
Dangerous builds = 0
set atom * x 0.0 y 0.0 z 0.0
Setting atom values ...
  48 settings made for x
  48 settings made for y
  48 settings made for z
change_box all     x final 0 6.746314348807233 y final 0 5.9199918737017825 z final 0 61.93793508197956      xy final -1.2619239358510517e-16 xz final 0.0 yz final 0.0 units box
Changing box ...
  triclinic box = (0 0 0) to (6.7463143 5.9199919 61.937935) with tilt (-1.2619239e-16 0 0)
  triclinic box = (0 0 0) to (6.7463143 5.9199919 61.937935) with tilt (-1.2619239e-16 0 0)
  triclinic box = (0 0 0) to (6.7463143 5.9199919 61.937935) with tilt (-1.2619239e-16 0 0)
  triclinic box = (0 0 0) to (6.7463143 5.9199919 61.937935) with tilt (-1.2619239e-16 0 0)
  triclinic box = (0 0 0) to (6.7463143 5.9199919 61.937935) with tilt (-1.2619239e-16 0 0)
  triclinic box = (0 0 0) to (6.7463143 5.9199919 61.937935) with tilt (-1.2619239e-16 0 0)
echo none
run 0
WARNING: No fixes with time integration, atoms won't move (src/verlet.cpp:60)
Per MPI rank memory allocation (min/avg/max) = 8.743 | 8.743 | 8.743 Mbytes
    PotEng          Pxx           E_mol          E_coul    
-144.00291     -2079.9938      0              0            
Loop time of 4.55e-07 on 1 procs for 0 steps with 48 atoms

219.8% CPU use with 1 MPI tasks x 1 OpenMP threads

MPI task timing breakdown:
Section |  min time  |  avg time  |  max time  |%varavg| %total
---------------------------------------------------------------
Pair    | 0          | 0          | 0          |   0.0 |  0.00
Neigh   | 0          | 0          | 0          |   0.0 |  0.00
Comm    | 0          | 0          | 0          |   0.0 |  0.00
Output  | 0          | 0          | 0          |   0.0 |  0.00
Modify  | 0          | 0          | 0          |   0.0 |  0.00
Other   |            | 4.55e-07   |            |       |100.00

Nlocal:             48 ave          48 max          48 min
Histogram: 1 0 0 0 0 0 0 0 0 0
Nghost:            498 ave         498 max         498 min
Histogram: 1 0 0 0 0 0 0 0 0 0
Neighs:           1416 ave        1416 max        1416 min
Histogram: 1 0 0 0 0 0 0 0 0 0
FullNghs:         2832 ave        2832 max        2832 min
Histogram: 1 0 0 0 0 0 0 0 0 0

Total # of neighbors = 2832
Ave neighs/atom = 59
Neighbor list builds = 0
Dangerous builds = 0
set atom * x 0.0 y 0.0 z 0.0
Setting atom values ...
  48 settings made for x
  48 settings made for y
  48 settings made for z
change_box all     x final 0 6.746314348807233 y final 0 5.9199918737017825 z final 0 61.93793508197956      xy final -1.2619239358510517e-16 xz final 0.0 yz final 0.0 units box
Changing box ...
  triclinic box = (0 0 0) to (6.7463143 5.9199919 61.937935) with tilt (-1.2619239e-16 0 0)
  triclinic box = (0 0 0) to (6.7463143 5.9199919 61.937935) with tilt (-1.2619239e-16 0 0)
  triclinic box = (0 0 0) to (6.7463143 5.9199919 61.937935) with tilt (-1.2619239e-16 0 0)
  triclinic box = (0 0 0) to (6.7463143 5.9199919 61.937935) with tilt (-1.2619239e-16 0 0)
  triclinic box = (0 0 0) to (6.7463143 5.9199919 61.937935) with tilt (-1.2619239e-16 0 0)
  triclinic box = (0 0 0) to (6.7463143 5.9199919 61.937935) with tilt (-1.2619239e-16 0 0)
echo none
run 0
WARNING: No fixes with time integration, atoms won't move (src/verlet.cpp:60)
Per MPI rank memory allocation (min/avg/max) = 8.743 | 8.743 | 8.743 Mbytes
    PotEng          Pxx           E_mol          E_coul    
-144.00326     -2067.4182      0              0            
Loop time of 4.73e-07 on 1 procs for 0 steps with 48 atoms

211.4% CPU use with 1 MPI tasks x 1 OpenMP threads

MPI task timing breakdown:
Section |  min time  |  avg time  |  max time  |%varavg| %total
---------------------------------------------------------------
Pair    | 0          | 0          | 0          |   0.0 |  0.00
Neigh   | 0          | 0          | 0          |   0.0 |  0.00
Comm    | 0          | 0          | 0          |   0.0 |  0.00
Output  | 0          | 0          | 0          |   0.0 |  0.00
Modify  | 0          | 0          | 0          |   0.0 |  0.00
Other   |            | 4.73e-07   |            |       |100.00

Nlocal:             48 ave          48 max          48 min
Histogram: 1 0 0 0 0 0 0 0 0 0
Nghost:            498 ave         498 max         498 min
Histogram: 1 0 0 0 0 0 0 0 0 0
Neighs:           1416 ave        1416 max        1416 min
Histogram: 1 0 0 0 0 0 0 0 0 0
FullNghs:         2832 ave        2832 max        2832 min
Histogram: 1 0 0 0 0 0 0 0 0 0

Total # of neighbors = 2832
Ave neighs/atom = 59
Neighbor list builds = 0
Dangerous builds = 0
set atom * x 0.0 y 0.0 z 0.0
Setting atom values ...
  48 settings made for x
  48 settings made for y
  48 settings made for z
change_box all     x final 0 6.746314348807233 y final 0 5.9199918737017825 z final 0 61.93793508197956      xy final -1.2619239358510517e-16 xz final 0.0 yz final 0.0 units box
Changing box ...
  triclinic box = (0 0 0) to (6.7463143 5.9199919 61.937935) with tilt (-1.2619239e-16 0 0)
  triclinic box = (0 0 0) to (6.7463143 5.9199919 61.937935) with tilt (-1.2619239e-16 0 0)
  triclinic box = (0 0 0) to (6.7463143 5.9199919 61.937935) with tilt (-1.2619239e-16 0 0)
  triclinic box = (0 0 0) to (6.7463143 5.9199919 61.937935) with tilt (-1.2619239e-16 0 0)
  triclinic box = (0 0 0) to (6.7463143 5.9199919 61.937935) with tilt (-1.2619239e-16 0 0)
  triclinic box = (0 0 0) to (6.7463143 5.9199919 61.937935) with tilt (-1.2619239e-16 0 0)
echo none
run 0
WARNING: No fixes with time integration, atoms won't move (src/verlet.cpp:60)
Per MPI rank memory allocation (min/avg/max) = 8.743 | 8.743 | 8.743 Mbytes
    PotEng          Pxx           E_mol          E_coul    
-144.00369     -2072.809       0              0            
Loop time of 4.71e-07 on 1 procs for 0 steps with 48 atoms

212.3% CPU use with 1 MPI tasks x 1 OpenMP threads

MPI task timing breakdown:
Section |  min time  |  avg time  |  max time  |%varavg| %total
---------------------------------------------------------------
Pair    | 0          | 0          | 0          |   0.0 |  0.00
Neigh   | 0          | 0          | 0          |   0.0 |  0.00
Comm    | 0          | 0          | 0          |   0.0 |  0.00
Output  | 0          | 0          | 0          |   0.0 |  0.00
Modify  | 0          | 0          | 0          |   0.0 |  0.00
Other   |            | 4.71e-07   |            |       |100.00

Nlocal:             48 ave          48 max          48 min
Histogram: 1 0 0 0 0 0 0 0 0 0
Nghost:            498 ave         498 max         498 min
Histogram: 1 0 0 0 0 0 0 0 0 0
Neighs:           1416 ave        1416 max        1416 min
Histogram: 1 0 0 0 0 0 0 0 0 0
FullNghs:         2832 ave        2832 max        2832 min
Histogram: 1 0 0 0 0 0 0 0 0 0

Total # of neighbors = 2832
Ave neighs/atom = 59
Neighbor list builds = 0
Dangerous builds = 0
set atom * x 0.0 y 0.0 z 0.0
Setting atom values ...
  48 settings made for x
  48 settings made for y
  48 settings made for z
change_box all     x final 0 6.746314348807233 y final 0 5.9199918737017825 z final 0 61.93793508197956      xy final -1.2619239358510517e-16 xz final 0.0 yz final 0.0 units box
Changing box ...
  triclinic box = (0 0 0) to (6.7463143 5.9199919 61.937935) with tilt (-1.2619239e-16 0 0)
  triclinic box = (0 0 0) to (6.7463143 5.9199919 61.937935) with tilt (-1.2619239e-16 0 0)
  triclinic box = (0 0 0) to (6.7463143 5.9199919 61.937935) with tilt (-1.2619239e-16 0 0)
  triclinic box = (0 0 0) to (6.7463143 5.9199919 61.937935) with tilt (-1.2619239e-16 0 0)
  triclinic box = (0 0 0) to (6.7463143 5.9199919 61.937935) with tilt (-1.2619239e-16 0 0)
  triclinic box = (0 0 0) to (6.7463143 5.9199919 61.937935) with tilt (-1.2619239e-16 0 0)
echo none
run 0
WARNING: No fixes with time integration, atoms won't move (src/verlet.cpp:60)
Per MPI rank memory allocation (min/avg/max) = 8.743 | 8.743 | 8.743 Mbytes
    PotEng          Pxx           E_mol          E_coul    
-144.00423     -2099.3806      0              0            
Loop time of 4.79e-07 on 1 procs for 0 steps with 48 atoms

208.8% CPU use with 1 MPI tasks x 1 OpenMP threads

MPI task timing breakdown:
Section |  min time  |  avg time  |  max time  |%varavg| %total
---------------------------------------------------------------
Pair    | 0          | 0          | 0          |   0.0 |  0.00
Neigh   | 0          | 0          | 0          |   0.0 |  0.00
Comm    | 0          | 0          | 0          |   0.0 |  0.00
Output  | 0          | 0          | 0          |   0.0 |  0.00
Modify  | 0          | 0          | 0          |   0.0 |  0.00
Other   |            | 4.79e-07   |            |       |100.00

Nlocal:             48 ave          48 max          48 min
Histogram: 1 0 0 0 0 0 0 0 0 0
Nghost:            498 ave         498 max         498 min
Histogram: 1 0 0 0 0 0 0 0 0 0
Neighs:           1416 ave        1416 max        1416 min
Histogram: 1 0 0 0 0 0 0 0 0 0
FullNghs:         2832 ave        2832 max        2832 min
Histogram: 1 0 0 0 0 0 0 0 0 0

Total # of neighbors = 2832
Ave neighs/atom = 59
Neighbor list builds = 0
Dangerous builds = 0
set atom * x 0.0 y 0.0 z 0.0
Setting atom values ...
  48 settings made for x
  48 settings made for y
  48 settings made for z
change_box all     x final 0 6.746314348807233 y final 0 5.9199918737017825 z final 0 61.93793508197956      xy final -1.2619239358510517e-16 xz final 0.0 yz final 0.0 units box
Changing box ...
  triclinic box = (0 0 0) to (6.7463143 5.9199919 61.937935) with tilt (-1.2619239e-16 0 0)
  triclinic box = (0 0 0) to (6.7463143 5.9199919 61.937935) with tilt (-1.2619239e-16 0 0)
  triclinic box = (0 0 0) to (6.7463143 5.9199919 61.937935) with tilt (-1.2619239e-16 0 0)
  triclinic box = (0 0 0) to (6.7463143 5.9199919 61.937935) with tilt (-1.2619239e-16 0 0)
  triclinic box = (0 0 0) to (6.7463143 5.9199919 61.937935) with tilt (-1.2619239e-16 0 0)
  triclinic box = (0 0 0) to (6.7463143 5.9199919 61.937935) with tilt (-1.2619239e-16 0 0)
echo none
run 0
WARNING: No fixes with time integration, atoms won't move (src/verlet.cpp:60)
Per MPI rank memory allocation (min/avg/max) = 8.743 | 8.743 | 8.743 Mbytes
    PotEng          Pxx           E_mol          E_coul    
-144.00468     -2139.2896      0              0            
Loop time of 4.33e-07 on 1 procs for 0 steps with 48 atoms

230.9% CPU use with 1 MPI tasks x 1 OpenMP threads

MPI task timing breakdown:
Section |  min time  |  avg time  |  max time  |%varavg| %total
---------------------------------------------------------------
Pair    | 0          | 0          | 0          |   0.0 |  0.00
Neigh   | 0          | 0          | 0          |   0.0 |  0.00
Comm    | 0          | 0          | 0          |   0.0 |  0.00
Output  | 0          | 0          | 0          |   0.0 |  0.00
Modify  | 0          | 0          | 0          |   0.0 |  0.00
Other   |            | 4.33e-07   |            |       |100.00

Nlocal:             48 ave          48 max          48 min
Histogram: 1 0 0 0 0 0 0 0 0 0
Nghost:            498 ave         498 max         498 min
Histogram: 1 0 0 0 0 0 0 0 0 0
Neighs:           1416 ave        1416 max        1416 min
Histogram: 1 0 0 0 0 0 0 0 0 0
FullNghs:         2832 ave        2832 max        2832 min
Histogram: 1 0 0 0 0 0 0 0 0 0

Total # of neighbors = 2832
Ave neighs/atom = 59
Neighbor list builds = 0
Dangerous builds = 0
set atom * x 0.0 y 0.0 z 0.0
Setting atom values ...
  48 settings made for x
  48 settings made for y
  48 settings made for z
change_box all     x final 0 6.746314348807233 y final 0 5.9199918737017825 z final 0 61.93793508197956      xy final -1.2619239358510517e-16 xz final 0.0 yz final 0.0 units box
Changing box ...
  triclinic box = (0 0 0) to (6.7463143 5.9199919 61.937935) with tilt (-1.2619239e-16 0 0)
  triclinic box = (0 0 0) to (6.7463143 5.9199919 61.937935) with tilt (-1.2619239e-16 0 0)
  triclinic box = (0 0 0) to (6.7463143 5.9199919 61.937935) with tilt (-1.2619239e-16 0 0)
  triclinic box = (0 0 0) to (6.7463143 5.9199919 61.937935) with tilt (-1.2619239e-16 0 0)
  triclinic box = (0 0 0) to (6.7463143 5.9199919 61.937935) with tilt (-1.2619239e-16 0 0)
  triclinic box = (0 0 0) to (6.7463143 5.9199919 61.937935) with tilt (-1.2619239e-16 0 0)
echo none
run 0
WARNING: No fixes with time integration, atoms won't move (src/verlet.cpp:60)
Per MPI rank memory allocation (min/avg/max) = 8.743 | 8.743 | 8.743 Mbytes
    PotEng          Pxx           E_mol          E_coul    
-144.00496     -2174.2924      0              0            
Loop time of 4.66e-07 on 1 procs for 0 steps with 48 atoms

214.6% CPU use with 1 MPI tasks x 1 OpenMP threads

MPI task timing breakdown:
Section |  min time  |  avg time  |  max time  |%varavg| %total
---------------------------------------------------------------
Pair    | 0          | 0          | 0          |   0.0 |  0.00
Neigh   | 0          | 0          | 0          |   0.0 |  0.00
Comm    | 0          | 0          | 0          |   0.0 |  0.00
Output  | 0          | 0          | 0          |   0.0 |  0.00
Modify  | 0          | 0          | 0          |   0.0 |  0.00
Other   |            | 4.66e-07   |            |       |100.00

Nlocal:             48 ave          48 max          48 min
Histogram: 1 0 0 0 0 0 0 0 0 0
Nghost:            498 ave         498 max         498 min
Histogram: 1 0 0 0 0 0 0 0 0 0
Neighs:           1416 ave        1416 max        1416 min
Histogram: 1 0 0 0 0 0 0 0 0 0
FullNghs:         2832 ave        2832 max        2832 min
Histogram: 1 0 0 0 0 0 0 0 0 0

Total # of neighbors = 2832
Ave neighs/atom = 59
Neighbor list builds = 0
Dangerous builds = 0
set atom * x 0.0 y 0.0 z 0.0
Setting atom values ...
  48 settings made for x
  48 settings made for y
  48 settings made for z
change_box all     x final 0 6.746314348807233 y final 0 5.9199918737017825 z final 0 61.93793508197956      xy final -1.2619239358510517e-16 xz final 0.0 yz final 0.0 units box
Changing box ...
  triclinic box = (0 0 0) to (6.7463143 5.9199919 61.937935) with tilt (-1.2619239e-16 0 0)
  triclinic box = (0 0 0) to (6.7463143 5.9199919 61.937935) with tilt (-1.2619239e-16 0 0)
  triclinic box = (0 0 0) to (6.7463143 5.9199919 61.937935) with tilt (-1.2619239e-16 0 0)
  triclinic box = (0 0 0) to (6.7463143 5.9199919 61.937935) with tilt (-1.2619239e-16 0 0)
  triclinic box = (0 0 0) to (6.7463143 5.9199919 61.937935) with tilt (-1.2619239e-16 0 0)
  triclinic box = (0 0 0) to (6.7463143 5.9199919 61.937935) with tilt (-1.2619239e-16 0 0)
echo none
run 0
WARNING: No fixes with time integration, atoms won't move (src/verlet.cpp:60)
Per MPI rank memory allocation (min/avg/max) = 8.743 | 8.743 | 8.743 Mbytes
    PotEng          Pxx           E_mol          E_coul    
-144.00519     -2205.1528      0              0            
Loop time of 4.37e-07 on 1 procs for 0 steps with 48 atoms

228.8% CPU use with 1 MPI tasks x 1 OpenMP threads

MPI task timing breakdown:
Section |  min time  |  avg time  |  max time  |%varavg| %total
---------------------------------------------------------------
Pair    | 0          | 0          | 0          |   0.0 |  0.00
Neigh   | 0          | 0          | 0          |   0.0 |  0.00
Comm    | 0          | 0          | 0          |   0.0 |  0.00
Output  | 0          | 0          | 0          |   0.0 |  0.00
Modify  | 0          | 0          | 0          |   0.0 |  0.00
Other   |            | 4.37e-07   |            |       |100.00

Nlocal:             48 ave          48 max          48 min
Histogram: 1 0 0 0 0 0 0 0 0 0
Nghost:            498 ave         498 max         498 min
Histogram: 1 0 0 0 0 0 0 0 0 0
Neighs:           1416 ave        1416 max        1416 min
Histogram: 1 0 0 0 0 0 0 0 0 0
FullNghs:         2832 ave        2832 max        2832 min
Histogram: 1 0 0 0 0 0 0 0 0 0

Total # of neighbors = 2832
Ave neighs/atom = 59
Neighbor list builds = 0
Dangerous builds = 0
set atom * x 0.0 y 0.0 z 0.0
Setting atom values ...
  48 settings made for x
  48 settings made for y
  48 settings made for z
change_box all     x final 0 6.746314348807233 y final 0 5.9199918737017825 z final 0 61.93793508197956      xy final -1.2619239358510517e-16 xz final 0.0 yz final 0.0 units box
Changing box ...
  triclinic box = (0 0 0) to (6.7463143 5.9199919 61.937935) with tilt (-1.2619239e-16 0 0)
  triclinic box = (0 0 0) to (6.7463143 5.9199919 61.937935) with tilt (-1.2619239e-16 0 0)
  triclinic box = (0 0 0) to (6.7463143 5.9199919 61.937935) with tilt (-1.2619239e-16 0 0)
  triclinic box = (0 0 0) to (6.7463143 5.9199919 61.937935) with tilt (-1.2619239e-16 0 0)
  triclinic box = (0 0 0) to (6.7463143 5.9199919 61.937935) with tilt (-1.2619239e-16 0 0)
  triclinic box = (0 0 0) to (6.7463143 5.9199919 61.937935) with tilt (-1.2619239e-16 0 0)
echo none
run 0
WARNING: No fixes with time integration, atoms won't move (src/verlet.cpp:60)
Per MPI rank memory allocation (min/avg/max) = 8.743 | 8.743 | 8.743 Mbytes
    PotEng          Pxx           E_mol          E_coul    
-144.00546     -2243.6959      0              0            
Loop time of 4.96e-07 on 1 procs for 0 steps with 48 atoms

201.6% CPU use with 1 MPI tasks x 1 OpenMP threads

MPI task timing breakdown:
Section |  min time  |  avg time  |  max time  |%varavg| %total
---------------------------------------------------------------
Pair    | 0          | 0          | 0          |   0.0 |  0.00
Neigh   | 0          | 0          | 0          |   0.0 |  0.00
Comm    | 0          | 0          | 0          |   0.0 |  0.00
Output  | 0          | 0          | 0          |   0.0 |  0.00
Modify  | 0          | 0          | 0          |   0.0 |  0.00
Other   |            | 4.96e-07   |            |       |100.00

Nlocal:             48 ave          48 max          48 min
Histogram: 1 0 0 0 0 0 0 0 0 0
Nghost:            498 ave         498 max         498 min
Histogram: 1 0 0 0 0 0 0 0 0 0
Neighs:           1416 ave        1416 max        1416 min
Histogram: 1 0 0 0 0 0 0 0 0 0
FullNghs:         2832 ave        2832 max        2832 min
Histogram: 1 0 0 0 0 0 0 0 0 0

Total # of neighbors = 2832
Ave neighs/atom = 59
Neighbor list builds = 0
Dangerous builds = 0
set atom * x 0.0 y 0.0 z 0.0
Setting atom values ...
  48 settings made for x
  48 settings made for y
  48 settings made for z
change_box all     x final 0 6.746314348807233 y final 0 5.9199918737017825 z final 0 61.93793508197956      xy final -1.2619239358510517e-16 xz final 0.0 yz final 0.0 units box
Changing box ...
  triclinic box = (0 0 0) to (6.7463143 5.9199919 61.937935) with tilt (-1.2619239e-16 0 0)
  triclinic box = (0 0 0) to (6.7463143 5.9199919 61.937935) with tilt (-1.2619239e-16 0 0)
  triclinic box = (0 0 0) to (6.7463143 5.9199919 61.937935) with tilt (-1.2619239e-16 0 0)
  triclinic box = (0 0 0) to (6.7463143 5.9199919 61.937935) with tilt (-1.2619239e-16 0 0)
  triclinic box = (0 0 0) to (6.7463143 5.9199919 61.937935) with tilt (-1.2619239e-16 0 0)
  triclinic box = (0 0 0) to (6.7463143 5.9199919 61.937935) with tilt (-1.2619239e-16 0 0)
echo none
run 0
WARNING: No fixes with time integration, atoms won't move (src/verlet.cpp:60)
Per MPI rank memory allocation (min/avg/max) = 8.743 | 8.743 | 8.743 Mbytes
    PotEng          Pxx           E_mol          E_coul    
-144.00573     -2283.791       0              0            
Loop time of 4.56e-07 on 1 procs for 0 steps with 48 atoms

0.0% CPU use with 1 MPI tasks x 1 OpenMP threads

MPI task timing breakdown:
Section |  min time  |  avg time  |  max time  |%varavg| %total
---------------------------------------------------------------
Pair    | 0          | 0          | 0          |   0.0 |  0.00
Neigh   | 0          | 0          | 0          |   0.0 |  0.00
Comm    | 0          | 0          | 0          |   0.0 |  0.00
Output  | 0          | 0          | 0          |   0.0 |  0.00
Modify  | 0          | 0          | 0          |   0.0 |  0.00
Other   |            | 4.56e-07   |            |       |100.00

Nlocal:             48 ave          48 max          48 min
Histogram: 1 0 0 0 0 0 0 0 0 0
Nghost:            498 ave         498 max         498 min
Histogram: 1 0 0 0 0 0 0 0 0 0
Neighs:           1416 ave        1416 max        1416 min
Histogram: 1 0 0 0 0 0 0 0 0 0
FullNghs:         2832 ave        2832 max        2832 min
Histogram: 1 0 0 0 0 0 0 0 0 0

Total # of neighbors = 2832
Ave neighs/atom = 59
Neighbor list builds = 0
Dangerous builds = 0
set atom * x 0.0 y 0.0 z 0.0
Setting atom values ...
  48 settings made for x
  48 settings made for y
  48 settings made for z
change_box all     x final 0 6.746314348807233 y final 0 5.9199918737017825 z final 0 61.93793508197956      xy final -1.2619239358510517e-16 xz final 0.0 yz final 0.0 units box
Changing box ...
  triclinic box = (0 0 0) to (6.7463143 5.9199919 61.937935) with tilt (-1.2619239e-16 0 0)
  triclinic box = (0 0 0) to (6.7463143 5.9199919 61.937935) with tilt (-1.2619239e-16 0 0)
  triclinic box = (0 0 0) to (6.7463143 5.9199919 61.937935) with tilt (-1.2619239e-16 0 0)
  triclinic box = (0 0 0) to (6.7463143 5.9199919 61.937935) with tilt (-1.2619239e-16 0 0)
  triclinic box = (0 0 0) to (6.7463143 5.9199919 61.937935) with tilt (-1.2619239e-16 0 0)
  triclinic box = (0 0 0) to (6.7463143 5.9199919 61.937935) with tilt (-1.2619239e-16 0 0)
echo none
run 0
WARNING: No fixes with time integration, atoms won't move (src/verlet.cpp:60)
Per MPI rank memory allocation (min/avg/max) = 8.743 | 8.743 | 8.743 Mbytes
    PotEng          Pxx           E_mol          E_coul    
-144.00591     -2308.1492      0              0            
Loop time of 4.99e-07 on 1 procs for 0 steps with 48 atoms

200.4% CPU use with 1 MPI tasks x 1 OpenMP threads

MPI task timing breakdown:
Section |  min time  |  avg time  |  max time  |%varavg| %total
---------------------------------------------------------------
Pair    | 0          | 0          | 0          |   0.0 |  0.00
Neigh   | 0          | 0          | 0          |   0.0 |  0.00
Comm    | 0          | 0          | 0          |   0.0 |  0.00
Output  | 0          | 0          | 0          |   0.0 |  0.00
Modify  | 0          | 0          | 0          |   0.0 |  0.00
Other   |            | 4.99e-07   |            |       |100.00

Nlocal:             48 ave          48 max          48 min
Histogram: 1 0 0 0 0 0 0 0 0 0
Nghost:            498 ave         498 max         498 min
Histogram: 1 0 0 0 0 0 0 0 0 0
Neighs:           1416 ave        1416 max        1416 min
Histogram: 1 0 0 0 0 0 0 0 0 0
FullNghs:         2832 ave        2832 max        2832 min
Histogram: 1 0 0 0 0 0 0 0 0 0

Total # of neighbors = 2832
Ave neighs/atom = 59
Neighbor list builds = 0
Dangerous builds = 0
set atom * x 0.0 y 0.0 z 0.0
Setting atom values ...
  48 settings made for x
  48 settings made for y
  48 settings made for z
change_box all     x final 0 6.746314348807233 y final 0 5.9199918737017825 z final 0 61.93793508197956      xy final -1.2619239358510517e-16 xz final 0.0 yz final 0.0 units box
Changing box ...
  triclinic box = (0 0 0) to (6.7463143 5.9199919 61.937935) with tilt (-1.2619239e-16 0 0)
  triclinic box = (0 0 0) to (6.7463143 5.9199919 61.937935) with tilt (-1.2619239e-16 0 0)
  triclinic box = (0 0 0) to (6.7463143 5.9199919 61.937935) with tilt (-1.2619239e-16 0 0)
  triclinic box = (0 0 0) to (6.7463143 5.9199919 61.937935) with tilt (-1.2619239e-16 0 0)
  triclinic box = (0 0 0) to (6.7463143 5.9199919 61.937935) with tilt (-1.2619239e-16 0 0)
  triclinic box = (0 0 0) to (6.7463143 5.9199919 61.937935) with tilt (-1.2619239e-16 0 0)
echo none
run 0
WARNING: No fixes with time integration, atoms won't move (src/verlet.cpp:60)
Per MPI rank memory allocation (min/avg/max) = 8.743 | 8.743 | 8.743 Mbytes
    PotEng          Pxx           E_mol          E_coul    
-144.00602     -2316.7566      0              0            
Loop time of 5.25e-07 on 1 procs for 0 steps with 48 atoms

190.5% CPU use with 1 MPI tasks x 1 OpenMP threads

MPI task timing breakdown:
Section |  min time  |  avg time  |  max time  |%varavg| %total
---------------------------------------------------------------
Pair    | 0          | 0          | 0          |   0.0 |  0.00
Neigh   | 0          | 0          | 0          |   0.0 |  0.00
Comm    | 0          | 0          | 0          |   0.0 |  0.00
Output  | 0          | 0          | 0          |   0.0 |  0.00
Modify  | 0          | 0          | 0          |   0.0 |  0.00
Other   |            | 5.25e-07   |            |       |100.00

Nlocal:             48 ave          48 max          48 min
Histogram: 1 0 0 0 0 0 0 0 0 0
Nghost:            498 ave         498 max         498 min
Histogram: 1 0 0 0 0 0 0 0 0 0
Neighs:           1416 ave        1416 max        1416 min
Histogram: 1 0 0 0 0 0 0 0 0 0
FullNghs:         2832 ave        2832 max        2832 min
Histogram: 1 0 0 0 0 0 0 0 0 0

Total # of neighbors = 2832
Ave neighs/atom = 59
Neighbor list builds = 0
Dangerous builds = 0
set atom * x 0.0 y 0.0 z 0.0
Setting atom values ...
  48 settings made for x
  48 settings made for y
  48 settings made for z
change_box all     x final 0 6.746314348807233 y final 0 5.9199918737017825 z final 0 61.93793508197956      xy final -1.2619239358510517e-16 xz final 0.0 yz final 0.0 units box
Changing box ...
  triclinic box = (0 0 0) to (6.7463143 5.9199919 61.937935) with tilt (-1.2619239e-16 0 0)
  triclinic box = (0 0 0) to (6.7463143 5.9199919 61.937935) with tilt (-1.2619239e-16 0 0)
  triclinic box = (0 0 0) to (6.7463143 5.9199919 61.937935) with tilt (-1.2619239e-16 0 0)
  triclinic box = (0 0 0) to (6.7463143 5.9199919 61.937935) with tilt (-1.2619239e-16 0 0)
  triclinic box = (0 0 0) to (6.7463143 5.9199919 61.937935) with tilt (-1.2619239e-16 0 0)
  triclinic box = (0 0 0) to (6.7463143 5.9199919 61.937935) with tilt (-1.2619239e-16 0 0)
echo none
run 0
WARNING: No fixes with time integration, atoms won't move (src/verlet.cpp:60)
Per MPI rank memory allocation (min/avg/max) = 8.743 | 8.743 | 8.743 Mbytes
    PotEng          Pxx           E_mol          E_coul    
-144.00614     -2322.3323      0              0            
Loop time of 5.68e-07 on 1 procs for 0 steps with 48 atoms

176.1% CPU use with 1 MPI tasks x 1 OpenMP threads

MPI task timing breakdown:
Section |  min time  |  avg time  |  max time  |%varavg| %total
---------------------------------------------------------------
Pair    | 0          | 0          | 0          |   0.0 |  0.00
Neigh   | 0          | 0          | 0          |   0.0 |  0.00
Comm    | 0          | 0          | 0          |   0.0 |  0.00
Output  | 0          | 0          | 0          |   0.0 |  0.00
Modify  | 0          | 0          | 0          |   0.0 |  0.00
Other   |            | 5.68e-07   |            |       |100.00

Nlocal:             48 ave          48 max          48 min
Histogram: 1 0 0 0 0 0 0 0 0 0
Nghost:            498 ave         498 max         498 min
Histogram: 1 0 0 0 0 0 0 0 0 0
Neighs:           1416 ave        1416 max        1416 min
Histogram: 1 0 0 0 0 0 0 0 0 0
FullNghs:         2832 ave        2832 max        2832 min
Histogram: 1 0 0 0 0 0 0 0 0 0

Total # of neighbors = 2832
Ave neighs/atom = 59
Neighbor list builds = 0
Dangerous builds = 0
set atom * x 0.0 y 0.0 z 0.0
Setting atom values ...
  48 settings made for x
  48 settings made for y
  48 settings made for z
change_box all     x final 0 6.746314348807233 y final 0 5.9199918737017825 z final 0 61.93793508197956      xy final -1.2619239358510517e-16 xz final 0.0 yz final 0.0 units box
Changing box ...
  triclinic box = (0 0 0) to (6.7463143 5.9199919 61.937935) with tilt (-1.2619239e-16 0 0)
  triclinic box = (0 0 0) to (6.7463143 5.9199919 61.937935) with tilt (-1.2619239e-16 0 0)
  triclinic box = (0 0 0) to (6.7463143 5.9199919 61.937935) with tilt (-1.2619239e-16 0 0)
  triclinic box = (0 0 0) to (6.7463143 5.9199919 61.937935) with tilt (-1.2619239e-16 0 0)
  triclinic box = (0 0 0) to (6.7463143 5.9199919 61.937935) with tilt (-1.2619239e-16 0 0)
  triclinic box = (0 0 0) to (6.7463143 5.9199919 61.937935) with tilt (-1.2619239e-16 0 0)
echo none
run 0
WARNING: No fixes with time integration, atoms won't move (src/verlet.cpp:60)
Per MPI rank memory allocation (min/avg/max) = 8.743 | 8.743 | 8.743 Mbytes
    PotEng          Pxx           E_mol          E_coul    
-144.00633     -2332.3774      0              0            
Loop time of 5.4e-07 on 1 procs for 0 steps with 48 atoms

185.2% CPU use with 1 MPI tasks x 1 OpenMP threads

MPI task timing breakdown:
Section |  min time  |  avg time  |  max time  |%varavg| %total
---------------------------------------------------------------
Pair    | 0          | 0          | 0          |   0.0 |  0.00
Neigh   | 0          | 0          | 0          |   0.0 |  0.00
Comm    | 0          | 0          | 0          |   0.0 |  0.00
Output  | 0          | 0          | 0          |   0.0 |  0.00
Modify  | 0          | 0          | 0          |   0.0 |  0.00
Other   |            | 5.4e-07    |            |       |100.00

Nlocal:             48 ave          48 max          48 min
Histogram: 1 0 0 0 0 0 0 0 0 0
Nghost:            498 ave         498 max         498 min
Histogram: 1 0 0 0 0 0 0 0 0 0
Neighs:           1416 ave        1416 max        1416 min
Histogram: 1 0 0 0 0 0 0 0 0 0
FullNghs:         2832 ave        2832 max        2832 min
Histogram: 1 0 0 0 0 0 0 0 0 0

Total # of neighbors = 2832
Ave neighs/atom = 59
Neighbor list builds = 0
Dangerous builds = 0
set atom * x 0.0 y 0.0 z 0.0
Setting atom values ...
  48 settings made for x
  48 settings made for y
  48 settings made for z
change_box all     x final 0 6.746314348807233 y final 0 5.9199918737017825 z final 0 61.93793508197956      xy final -1.2619239358510517e-16 xz final 0.0 yz final 0.0 units box
Changing box ...
  triclinic box = (0 0 0) to (6.7463143 5.9199919 61.937935) with tilt (-1.2619239e-16 0 0)
  triclinic box = (0 0 0) to (6.7463143 5.9199919 61.937935) with tilt (-1.2619239e-16 0 0)
  triclinic box = (0 0 0) to (6.7463143 5.9199919 61.937935) with tilt (-1.2619239e-16 0 0)
  triclinic box = (0 0 0) to (6.7463143 5.9199919 61.937935) with tilt (-1.2619239e-16 0 0)
  triclinic box = (0 0 0) to (6.7463143 5.9199919 61.937935) with tilt (-1.2619239e-16 0 0)
  triclinic box = (0 0 0) to (6.7463143 5.9199919 61.937935) with tilt (-1.2619239e-16 0 0)
echo none
run 0
WARNING: No fixes with time integration, atoms won't move (src/verlet.cpp:60)
Per MPI rank memory allocation (min/avg/max) = 8.743 | 8.743 | 8.743 Mbytes
    PotEng          Pxx           E_mol          E_coul    
-144.00656     -2350.0463      0              0            
Loop time of 4.52e-07 on 1 procs for 0 steps with 48 atoms

0.0% CPU use with 1 MPI tasks x 1 OpenMP threads

MPI task timing breakdown:
Section |  min time  |  avg time  |  max time  |%varavg| %total
---------------------------------------------------------------
Pair    | 0          | 0          | 0          |   0.0 |  0.00
Neigh   | 0          | 0          | 0          |   0.0 |  0.00
Comm    | 0          | 0          | 0          |   0.0 |  0.00
Output  | 0          | 0          | 0          |   0.0 |  0.00
Modify  | 0          | 0          | 0          |   0.0 |  0.00
Other   |            | 4.52e-07   |            |       |100.00

Nlocal:             48 ave          48 max          48 min
Histogram: 1 0 0 0 0 0 0 0 0 0
Nghost:            498 ave         498 max         498 min
Histogram: 1 0 0 0 0 0 0 0 0 0
Neighs:           1416 ave        1416 max        1416 min
Histogram: 1 0 0 0 0 0 0 0 0 0
FullNghs:         2832 ave        2832 max        2832 min
Histogram: 1 0 0 0 0 0 0 0 0 0

Total # of neighbors = 2832
Ave neighs/atom = 59
Neighbor list builds = 0
Dangerous builds = 0
set atom * x 0.0 y 0.0 z 0.0
Setting atom values ...
  48 settings made for x
  48 settings made for y
  48 settings made for z
change_box all     x final 0 6.746314348807233 y final 0 5.9199918737017825 z final 0 61.93793508197956      xy final -1.2619239358510517e-16 xz final 0.0 yz final 0.0 units box
Changing box ...
  triclinic box = (0 0 0) to (6.7463143 5.9199919 61.937935) with tilt (-1.2619239e-16 0 0)
  triclinic box = (0 0 0) to (6.7463143 5.9199919 61.937935) with tilt (-1.2619239e-16 0 0)
  triclinic box = (0 0 0) to (6.7463143 5.9199919 61.937935) with tilt (-1.2619239e-16 0 0)
  triclinic box = (0 0 0) to (6.7463143 5.9199919 61.937935) with tilt (-1.2619239e-16 0 0)
  triclinic box = (0 0 0) to (6.7463143 5.9199919 61.937935) with tilt (-1.2619239e-16 0 0)
  triclinic box = (0 0 0) to (6.7463143 5.9199919 61.937935) with tilt (-1.2619239e-16 0 0)
echo none
run 0
WARNING: No fixes with time integration, atoms won't move (src/verlet.cpp:60)
Per MPI rank memory allocation (min/avg/max) = 8.743 | 8.743 | 8.743 Mbytes
    PotEng          Pxx           E_mol          E_coul    
-144.00675     -2371.3487      0              0            
Loop time of 4.31e-07 on 1 procs for 0 steps with 48 atoms

232.0% CPU use with 1 MPI tasks x 1 OpenMP threads

MPI task timing breakdown:
Section |  min time  |  avg time  |  max time  |%varavg| %total
---------------------------------------------------------------
Pair    | 0          | 0          | 0          |   0.0 |  0.00
Neigh   | 0          | 0          | 0          |   0.0 |  0.00
Comm    | 0          | 0          | 0          |   0.0 |  0.00
Output  | 0          | 0          | 0          |   0.0 |  0.00
Modify  | 0          | 0          | 0          |   0.0 |  0.00
Other   |            | 4.31e-07   |            |       |100.00

Nlocal:             48 ave          48 max          48 min
Histogram: 1 0 0 0 0 0 0 0 0 0
Nghost:            498 ave         498 max         498 min
Histogram: 1 0 0 0 0 0 0 0 0 0
Neighs:           1416 ave        1416 max        1416 min
Histogram: 1 0 0 0 0 0 0 0 0 0
FullNghs:         2832 ave        2832 max        2832 min
Histogram: 1 0 0 0 0 0 0 0 0 0

Total # of neighbors = 2832
Ave neighs/atom = 59
Neighbor list builds = 0
Dangerous builds = 0
set atom * x 0.0 y 0.0 z 0.0
Setting atom values ...
  48 settings made for x
  48 settings made for y
  48 settings made for z
change_box all     x final 0 6.746314348807233 y final 0 5.9199918737017825 z final 0 61.93793508197956      xy final -1.2619239358510517e-16 xz final 0.0 yz final 0.0 units box
Changing box ...
  triclinic box = (0 0 0) to (6.7463143 5.9199919 61.937935) with tilt (-1.2619239e-16 0 0)
  triclinic box = (0 0 0) to (6.7463143 5.9199919 61.937935) with tilt (-1.2619239e-16 0 0)
  triclinic box = (0 0 0) to (6.7463143 5.9199919 61.937935) with tilt (-1.2619239e-16 0 0)
  triclinic box = (0 0 0) to (6.7463143 5.9199919 61.937935) with tilt (-1.2619239e-16 0 0)
  triclinic box = (0 0 0) to (6.7463143 5.9199919 61.937935) with tilt (-1.2619239e-16 0 0)
  triclinic box = (0 0 0) to (6.7463143 5.9199919 61.937935) with tilt (-1.2619239e-16 0 0)
echo none
run 0
WARNING: No fixes with time integration, atoms won't move (src/verlet.cpp:60)
Per MPI rank memory allocation (min/avg/max) = 8.743 | 8.743 | 8.743 Mbytes
    PotEng          Pxx           E_mol          E_coul    
-144.00687     -2390.0914      0              0            
Loop time of 4.21e-07 on 1 procs for 0 steps with 48 atoms

237.5% CPU use with 1 MPI tasks x 1 OpenMP threads

MPI task timing breakdown:
Section |  min time  |  avg time  |  max time  |%varavg| %total
---------------------------------------------------------------
Pair    | 0          | 0          | 0          |   0.0 |  0.00
Neigh   | 0          | 0          | 0          |   0.0 |  0.00
Comm    | 0          | 0          | 0          |   0.0 |  0.00
Output  | 0          | 0          | 0          |   0.0 |  0.00
Modify  | 0          | 0          | 0          |   0.0 |  0.00
Other   |            | 4.21e-07   |            |       |100.00

Nlocal:             48 ave          48 max          48 min
Histogram: 1 0 0 0 0 0 0 0 0 0
Nghost:            498 ave         498 max         498 min
Histogram: 1 0 0 0 0 0 0 0 0 0
Neighs:           1416 ave        1416 max        1416 min
Histogram: 1 0 0 0 0 0 0 0 0 0
FullNghs:         2832 ave        2832 max        2832 min
Histogram: 1 0 0 0 0 0 0 0 0 0

Total # of neighbors = 2832
Ave neighs/atom = 59
Neighbor list builds = 0
Dangerous builds = 0
set atom * x 0.0 y 0.0 z 0.0
Setting atom values ...
  48 settings made for x
  48 settings made for y
  48 settings made for z
change_box all     x final 0 6.746314348807233 y final 0 5.9199918737017825 z final 0 61.93793508197956      xy final -1.2619239358510517e-16 xz final 0.0 yz final 0.0 units box
Changing box ...
  triclinic box = (0 0 0) to (6.7463143 5.9199919 61.937935) with tilt (-1.2619239e-16 0 0)
  triclinic box = (0 0 0) to (6.7463143 5.9199919 61.937935) with tilt (-1.2619239e-16 0 0)
  triclinic box = (0 0 0) to (6.7463143 5.9199919 61.937935) with tilt (-1.2619239e-16 0 0)
  triclinic box = (0 0 0) to (6.7463143 5.9199919 61.937935) with tilt (-1.2619239e-16 0 0)
  triclinic box = (0 0 0) to (6.7463143 5.9199919 61.937935) with tilt (-1.2619239e-16 0 0)
  triclinic box = (0 0 0) to (6.7463143 5.9199919 61.937935) with tilt (-1.2619239e-16 0 0)
echo none
run 0
WARNING: No fixes with time integration, atoms won't move (src/verlet.cpp:60)
Per MPI rank memory allocation (min/avg/max) = 8.743 | 8.743 | 8.743 Mbytes
    PotEng          Pxx           E_mol          E_coul    
-144.00697     -2409.2579      0              0            
Loop time of 4.32e-07 on 1 procs for 0 steps with 48 atoms

231.5% CPU use with 1 MPI tasks x 1 OpenMP threads

MPI task timing breakdown:
Section |  min time  |  avg time  |  max time  |%varavg| %total
---------------------------------------------------------------
Pair    | 0          | 0          | 0          |   0.0 |  0.00
Neigh   | 0          | 0          | 0          |   0.0 |  0.00
Comm    | 0          | 0          | 0          |   0.0 |  0.00
Output  | 0          | 0          | 0          |   0.0 |  0.00
Modify  | 0          | 0          | 0          |   0.0 |  0.00
Other   |            | 4.32e-07   |            |       |100.00

Nlocal:             48 ave          48 max          48 min
Histogram: 1 0 0 0 0 0 0 0 0 0
Nghost:            498 ave         498 max         498 min
Histogram: 1 0 0 0 0 0 0 0 0 0
Neighs:           1416 ave        1416 max        1416 min
Histogram: 1 0 0 0 0 0 0 0 0 0
FullNghs:         2832 ave        2832 max        2832 min
Histogram: 1 0 0 0 0 0 0 0 0 0

Total # of neighbors = 2832
Ave neighs/atom = 59
Neighbor list builds = 0
Dangerous builds = 0
set atom * x 0.0 y 0.0 z 0.0
Setting atom values ...
  48 settings made for x
  48 settings made for y
  48 settings made for z
change_box all     x final 0 6.746314348807233 y final 0 5.9199918737017825 z final 0 61.93793508197956      xy final -1.2619239358510517e-16 xz final 0.0 yz final 0.0 units box
Changing box ...
  triclinic box = (0 0 0) to (6.7463143 5.9199919 61.937935) with tilt (-1.2619239e-16 0 0)
  triclinic box = (0 0 0) to (6.7463143 5.9199919 61.937935) with tilt (-1.2619239e-16 0 0)
  triclinic box = (0 0 0) to (6.7463143 5.9199919 61.937935) with tilt (-1.2619239e-16 0 0)
  triclinic box = (0 0 0) to (6.7463143 5.9199919 61.937935) with tilt (-1.2619239e-16 0 0)
  triclinic box = (0 0 0) to (6.7463143 5.9199919 61.937935) with tilt (-1.2619239e-16 0 0)
  triclinic box = (0 0 0) to (6.7463143 5.9199919 61.937935) with tilt (-1.2619239e-16 0 0)
echo none
run 0
WARNING: No fixes with time integration, atoms won't move (src/verlet.cpp:60)
Per MPI rank memory allocation (min/avg/max) = 8.743 | 8.743 | 8.743 Mbytes
    PotEng          Pxx           E_mol          E_coul    
-144.00708     -2433.4876      0              0            
Loop time of 4.84e-07 on 1 procs for 0 steps with 48 atoms

206.6% CPU use with 1 MPI tasks x 1 OpenMP threads

MPI task timing breakdown:
Section |  min time  |  avg time  |  max time  |%varavg| %total
---------------------------------------------------------------
Pair    | 0          | 0          | 0          |   0.0 |  0.00
Neigh   | 0          | 0          | 0          |   0.0 |  0.00
Comm    | 0          | 0          | 0          |   0.0 |  0.00
Output  | 0          | 0          | 0          |   0.0 |  0.00
Modify  | 0          | 0          | 0          |   0.0 |  0.00
Other   |            | 4.84e-07   |            |       |100.00

Nlocal:             48 ave          48 max          48 min
Histogram: 1 0 0 0 0 0 0 0 0 0
Nghost:            498 ave         498 max         498 min
Histogram: 1 0 0 0 0 0 0 0 0 0
Neighs:           1416 ave        1416 max        1416 min
Histogram: 1 0 0 0 0 0 0 0 0 0
FullNghs:         2832 ave        2832 max        2832 min
Histogram: 1 0 0 0 0 0 0 0 0 0

Total # of neighbors = 2832
Ave neighs/atom = 59
Neighbor list builds = 0
Dangerous builds = 0
set atom * x 0.0 y 0.0 z 0.0
Setting atom values ...
  48 settings made for x
  48 settings made for y
  48 settings made for z
change_box all     x final 0 6.746314348807233 y final 0 5.9199918737017825 z final 0 61.93793508197956      xy final -1.2619239358510517e-16 xz final 0.0 yz final 0.0 units box
Changing box ...
  triclinic box = (0 0 0) to (6.7463143 5.9199919 61.937935) with tilt (-1.2619239e-16 0 0)
  triclinic box = (0 0 0) to (6.7463143 5.9199919 61.937935) with tilt (-1.2619239e-16 0 0)
  triclinic box = (0 0 0) to (6.7463143 5.9199919 61.937935) with tilt (-1.2619239e-16 0 0)
  triclinic box = (0 0 0) to (6.7463143 5.9199919 61.937935) with tilt (-1.2619239e-16 0 0)
  triclinic box = (0 0 0) to (6.7463143 5.9199919 61.937935) with tilt (-1.2619239e-16 0 0)
  triclinic box = (0 0 0) to (6.7463143 5.9199919 61.937935) with tilt (-1.2619239e-16 0 0)
echo none
run 0
WARNING: No fixes with time integration, atoms won't move (src/verlet.cpp:60)
Per MPI rank memory allocation (min/avg/max) = 8.743 | 8.743 | 8.743 Mbytes
    PotEng          Pxx           E_mol          E_coul    
-144.00718     -2458.6828      0              0            
Loop time of 4.22e-07 on 1 procs for 0 steps with 48 atoms

237.0% CPU use with 1 MPI tasks x 1 OpenMP threads

MPI task timing breakdown:
Section |  min time  |  avg time  |  max time  |%varavg| %total
---------------------------------------------------------------
Pair    | 0          | 0          | 0          |   0.0 |  0.00
Neigh   | 0          | 0          | 0          |   0.0 |  0.00
Comm    | 0          | 0          | 0          |   0.0 |  0.00
Output  | 0          | 0          | 0          |   0.0 |  0.00
Modify  | 0          | 0          | 0          |   0.0 |  0.00
Other   |            | 4.22e-07   |            |       |100.00

Nlocal:             48 ave          48 max          48 min
Histogram: 1 0 0 0 0 0 0 0 0 0
Nghost:            498 ave         498 max         498 min
Histogram: 1 0 0 0 0 0 0 0 0 0
Neighs:           1416 ave        1416 max        1416 min
Histogram: 1 0 0 0 0 0 0 0 0 0
FullNghs:         2832 ave        2832 max        2832 min
Histogram: 1 0 0 0 0 0 0 0 0 0

Total # of neighbors = 2832
Ave neighs/atom = 59
Neighbor list builds = 0
Dangerous builds = 0
set atom * x 0.0 y 0.0 z 0.0
Setting atom values ...
  48 settings made for x
  48 settings made for y
  48 settings made for z
change_box all     x final 0 6.746314348807233 y final 0 5.9199918737017825 z final 0 61.93793508197956      xy final -1.2619239358510517e-16 xz final 0.0 yz final 0.0 units box
Changing box ...
  triclinic box = (0 0 0) to (6.7463143 5.9199919 61.937935) with tilt (-1.2619239e-16 0 0)
  triclinic box = (0 0 0) to (6.7463143 5.9199919 61.937935) with tilt (-1.2619239e-16 0 0)
  triclinic box = (0 0 0) to (6.7463143 5.9199919 61.937935) with tilt (-1.2619239e-16 0 0)
  triclinic box = (0 0 0) to (6.7463143 5.9199919 61.937935) with tilt (-1.2619239e-16 0 0)
  triclinic box = (0 0 0) to (6.7463143 5.9199919 61.937935) with tilt (-1.2619239e-16 0 0)
  triclinic box = (0 0 0) to (6.7463143 5.9199919 61.937935) with tilt (-1.2619239e-16 0 0)
echo none
run 0
WARNING: No fixes with time integration, atoms won't move (src/verlet.cpp:60)
Per MPI rank memory allocation (min/avg/max) = 8.743 | 8.743 | 8.743 Mbytes
    PotEng          Pxx           E_mol          E_coul    
-144.00724     -2478.8566      0              0            
Loop time of 4.57e-07 on 1 procs for 0 steps with 48 atoms

218.8% CPU use with 1 MPI tasks x 1 OpenMP threads

MPI task timing breakdown:
Section |  min time  |  avg time  |  max time  |%varavg| %total
---------------------------------------------------------------
Pair    | 0          | 0          | 0          |   0.0 |  0.00
Neigh   | 0          | 0          | 0          |   0.0 |  0.00
Comm    | 0          | 0          | 0          |   0.0 |  0.00
Output  | 0          | 0          | 0          |   0.0 |  0.00
Modify  | 0          | 0          | 0          |   0.0 |  0.00
Other   |            | 4.57e-07   |            |       |100.00

Nlocal:             48 ave          48 max          48 min
Histogram: 1 0 0 0 0 0 0 0 0 0
Nghost:            498 ave         498 max         498 min
Histogram: 1 0 0 0 0 0 0 0 0 0
Neighs:           1416 ave        1416 max        1416 min
Histogram: 1 0 0 0 0 0 0 0 0 0
FullNghs:         2832 ave        2832 max        2832 min
Histogram: 1 0 0 0 0 0 0 0 0 0

Total # of neighbors = 2832
Ave neighs/atom = 59
Neighbor list builds = 0
Dangerous builds = 0
set atom * x 0.0 y 0.0 z 0.0
Setting atom values ...
  48 settings made for x
  48 settings made for y
  48 settings made for z
change_box all     x final 0 6.746314348807233 y final 0 5.9199918737017825 z final 0 61.93793508197956      xy final -1.2619239358510517e-16 xz final 0.0 yz final 0.0 units box
Changing box ...
  triclinic box = (0 0 0) to (6.7463143 5.9199919 61.937935) with tilt (-1.2619239e-16 0 0)
  triclinic box = (0 0 0) to (6.7463143 5.9199919 61.937935) with tilt (-1.2619239e-16 0 0)
  triclinic box = (0 0 0) to (6.7463143 5.9199919 61.937935) with tilt (-1.2619239e-16 0 0)
  triclinic box = (0 0 0) to (6.7463143 5.9199919 61.937935) with tilt (-1.2619239e-16 0 0)
  triclinic box = (0 0 0) to (6.7463143 5.9199919 61.937935) with tilt (-1.2619239e-16 0 0)
  triclinic box = (0 0 0) to (6.7463143 5.9199919 61.937935) with tilt (-1.2619239e-16 0 0)
echo none
run 0
WARNING: No fixes with time integration, atoms won't move (src/verlet.cpp:60)
Per MPI rank memory allocation (min/avg/max) = 8.743 | 8.743 | 8.743 Mbytes
    PotEng          Pxx           E_mol          E_coul    
-144.00728     -2497.6518      0              0            
Loop time of 4.24e-07 on 1 procs for 0 steps with 48 atoms

235.8% CPU use with 1 MPI tasks x 1 OpenMP threads

MPI task timing breakdown:
Section |  min time  |  avg time  |  max time  |%varavg| %total
---------------------------------------------------------------
Pair    | 0          | 0          | 0          |   0.0 |  0.00
Neigh   | 0          | 0          | 0          |   0.0 |  0.00
Comm    | 0          | 0          | 0          |   0.0 |  0.00
Output  | 0          | 0          | 0          |   0.0 |  0.00
Modify  | 0          | 0          | 0          |   0.0 |  0.00
Other   |            | 4.24e-07   |            |       |100.00

Nlocal:             48 ave          48 max          48 min
Histogram: 1 0 0 0 0 0 0 0 0 0
Nghost:            498 ave         498 max         498 min
Histogram: 1 0 0 0 0 0 0 0 0 0
Neighs:           1416 ave        1416 max        1416 min
Histogram: 1 0 0 0 0 0 0 0 0 0
FullNghs:         2832 ave        2832 max        2832 min
Histogram: 1 0 0 0 0 0 0 0 0 0

Total # of neighbors = 2832
Ave neighs/atom = 59
Neighbor list builds = 0
Dangerous builds = 0
set atom * x 0.0 y 0.0 z 0.0
Setting atom values ...
  48 settings made for x
  48 settings made for y
  48 settings made for z
change_box all     x final 0 6.746314348807233 y final 0 5.9199918737017825 z final 0 61.93793508197956      xy final -1.2619239358510517e-16 xz final 0.0 yz final 0.0 units box
Changing box ...
  triclinic box = (0 0 0) to (6.7463143 5.9199919 61.937935) with tilt (-1.2619239e-16 0 0)
  triclinic box = (0 0 0) to (6.7463143 5.9199919 61.937935) with tilt (-1.2619239e-16 0 0)
  triclinic box = (0 0 0) to (6.7463143 5.9199919 61.937935) with tilt (-1.2619239e-16 0 0)
  triclinic box = (0 0 0) to (6.7463143 5.9199919 61.937935) with tilt (-1.2619239e-16 0 0)
  triclinic box = (0 0 0) to (6.7463143 5.9199919 61.937935) with tilt (-1.2619239e-16 0 0)
  triclinic box = (0 0 0) to (6.7463143 5.9199919 61.937935) with tilt (-1.2619239e-16 0 0)
echo none
run 0
WARNING: No fixes with time integration, atoms won't move (src/verlet.cpp:60)
Per MPI rank memory allocation (min/avg/max) = 8.743 | 8.743 | 8.743 Mbytes
    PotEng          Pxx           E_mol          E_coul    
-144.00734     -2524.1326      0              0            
Loop time of 4.5e-07 on 1 procs for 0 steps with 48 atoms

222.2% CPU use with 1 MPI tasks x 1 OpenMP threads

MPI task timing breakdown:
Section |  min time  |  avg time  |  max time  |%varavg| %total
---------------------------------------------------------------
Pair    | 0          | 0          | 0          |   0.0 |  0.00
Neigh   | 0          | 0          | 0          |   0.0 |  0.00
Comm    | 0          | 0          | 0          |   0.0 |  0.00
Output  | 0          | 0          | 0          |   0.0 |  0.00
Modify  | 0          | 0          | 0          |   0.0 |  0.00
Other   |            | 4.5e-07    |            |       |100.00

Nlocal:             48 ave          48 max          48 min
Histogram: 1 0 0 0 0 0 0 0 0 0
Nghost:            498 ave         498 max         498 min
Histogram: 1 0 0 0 0 0 0 0 0 0
Neighs:           1416 ave        1416 max        1416 min
Histogram: 1 0 0 0 0 0 0 0 0 0
FullNghs:         2832 ave        2832 max        2832 min
Histogram: 1 0 0 0 0 0 0 0 0 0

Total # of neighbors = 2832
Ave neighs/atom = 59
Neighbor list builds = 0
Dangerous builds = 0
Total wall time: 0:00:00
