LAMMPS (29 Aug 2024)
OMP_NUM_THREADS environment is not set. Defaulting to 1 thread. (src/comm.cpp:98)
  using 1 OpenMP thread(s) per MPI task
units metal
atom_style atomic
atom_modify map array sort 0 0
boundary p p p
box tilt large

The 'box' command has been removed and will be ignored

region cell prism    0 8.76995540567932 0 6.30995403047537 0 54.07444487965483     2.3868886497300186 0.0 0.0     units box
create_box 1 cell
Created triclinic box = (0 0 0) to (8.7699554 6.309954 54.074445) with tilt (2.3868886 0 0)
  1 by 1 by 1 MPI processor grid
echo none
Created 48 atoms
  using lattice units in triclinic box = (0 0 0) to (8.7699554 6.309954 54.074445) with tilt (2.3868886 0 0)
  create_atoms CPU = 0.000 seconds
Setting atom values ...
  1 settings made for type
Setting atom values ...
  1 settings made for type
Setting atom values ...
  1 settings made for type
Setting atom values ...
  1 settings made for type
Setting atom values ...
  1 settings made for type
Setting atom values ...
  1 settings made for type
Setting atom values ...
  1 settings made for type
Setting atom values ...
  1 settings made for type
Setting atom values ...
  1 settings made for type
Setting atom values ...
  1 settings made for type
Setting atom values ...
  1 settings made for type
Setting atom values ...
  1 settings made for type
Setting atom values ...
  1 settings made for type
Setting atom values ...
  1 settings made for type
Setting atom values ...
  1 settings made for type
Setting atom values ...
  1 settings made for type
Setting atom values ...
  1 settings made for type
Setting atom values ...
  1 settings made for type
Setting atom values ...
  1 settings made for type
Setting atom values ...
  1 settings made for type
Setting atom values ...
  1 settings made for type
Setting atom values ...
  1 settings made for type
Setting atom values ...
  1 settings made for type
Setting atom values ...
  1 settings made for type
Setting atom values ...
  1 settings made for type
Setting atom values ...
  1 settings made for type
Setting atom values ...
  1 settings made for type
Setting atom values ...
  1 settings made for type
Setting atom values ...
  1 settings made for type
Setting atom values ...
  1 settings made for type
Setting atom values ...
  1 settings made for type
Setting atom values ...
  1 settings made for type
Setting atom values ...
  1 settings made for type
Setting atom values ...
  1 settings made for type
Setting atom values ...
  1 settings made for type
Setting atom values ...
  1 settings made for type
Setting atom values ...
  1 settings made for type
Setting atom values ...
  1 settings made for type
Setting atom values ...
  1 settings made for type
Setting atom values ...
  1 settings made for type
Setting atom values ...
  1 settings made for type
Setting atom values ...
  1 settings made for type
Setting atom values ...
  1 settings made for type
Setting atom values ...
  1 settings made for type
Setting atom values ...
  1 settings made for type
Setting atom values ...
  1 settings made for type
Setting atom values ...
  1 settings made for type
Setting atom values ...
  1 settings made for type
pair_style meam
pair_coeff * * <HOME>/projects/beta-sn-elasticity/surface_gb/meam_potentials/library.Sn.Ravelo1997.meam Sn <HOME>/projects/beta-sn-elasticity/surface_gb/meam_potentials/Sn.Ravelo1997.meam Sn
compute pe_peratom all pe/atom
mass 1 118.709999969462515423401782754809
variable pxx equal pxx
variable pyy equal pyy
variable pzz equal pzz
variable pxy equal pxy
variable pxz equal pxz
variable pyz equal pyz
thermo_style custom pe pxx emol ecoul
variable fx atom fx
variable fy atom fy
variable fz atom fz
variable pe equal pe
neigh_modify delay 0 every 1 check yes
echo none
run 0
WARNING: No fixes with time integration, atoms won't move (src/verlet.cpp:60)
Neighbor list info ...
  update: every = 1 steps, delay = 0 steps, check = yes
  max neighbors/atom: 2000, page size: 100000
  master list distance cutoff = 7.5
  ghost atom cutoff = 7.5
  binsize = 3.75, bins = 3 2 15
  2 neighbor lists, perpetual/occasional/extra = 2 0 0
  (1) pair meam, perpetual
      attributes: full, newton on
      pair build: full/bin/atomonly
      stencil: full/bin/3d
      bin: standard
  (2) pair meam, perpetual, half/full from (1)
      attributes: half, newton on
      pair build: halffull/newton/tri
      stencil: none
      bin: none
Per MPI rank memory allocation (min/avg/max) = 8.592 | 8.592 | 8.592 Mbytes
    PotEng          Pxx           E_mol          E_coul    
-141.26716      28.735885      0              0            
Loop time of 1.627e-06 on 1 procs for 0 steps with 48 atoms

184.4% CPU use with 1 MPI tasks x 1 OpenMP threads

MPI task timing breakdown:
Section |  min time  |  avg time  |  max time  |%varavg| %total
---------------------------------------------------------------
Pair    | 0          | 0          | 0          |   0.0 |  0.00
Neigh   | 0          | 0          | 0          |   0.0 |  0.00
Comm    | 0          | 0          | 0          |   0.0 |  0.00
Output  | 0          | 0          | 0          |   0.0 |  0.00
Modify  | 0          | 0          | 0          |   0.0 |  0.00
Other   |            | 1.627e-06  |            |       |100.00

Nlocal:             48 ave          48 max          48 min
Histogram: 1 0 0 0 0 0 0 0 0 0
Nghost:            412 ave         412 max         412 min
Histogram: 1 0 0 0 0 0 0 0 0 0
Neighs:           1356 ave        1356 max        1356 min
Histogram: 1 0 0 0 0 0 0 0 0 0
FullNghs:         2712 ave        2712 max        2712 min
Histogram: 1 0 0 0 0 0 0 0 0 0

Total # of neighbors = 2712
Ave neighs/atom = 56.5
Neighbor list builds = 0
Dangerous builds = 0
set atom * x 0.0 y 0.0 z 0.0
Setting atom values ...
  48 settings made for x
  48 settings made for y
  48 settings made for z
change_box all     x final 0 8.76995540567932 y final 0 6.30995403047537 z final 0 54.07444487965483      xy final 2.3868886497300186 xz final 0.0 yz final 0.0 units box
Changing box ...
  triclinic box = (0 0 0) to (8.7699554 6.309954 54.074445) with tilt (2.3868886 0 0)
  triclinic box = (0 0 0) to (8.7699554 6.309954 54.074445) with tilt (2.3868886 0 0)
  triclinic box = (0 0 0) to (8.7699554 6.309954 54.074445) with tilt (2.3868886 0 0)
  triclinic box = (0 0 0) to (8.7699554 6.309954 54.074445) with tilt (2.3868886 0 0)
  triclinic box = (0 0 0) to (8.7699554 6.309954 54.074445) with tilt (2.3868886 0 0)
  triclinic box = (0 0 0) to (8.7699554 6.309954 54.074445) with tilt (2.3868886 0 0)
echo none
run 0
WARNING: No fixes with time integration, atoms won't move (src/verlet.cpp:60)
Per MPI rank memory allocation (min/avg/max) = 8.717 | 8.717 | 8.717 Mbytes
    PotEng          Pxx           E_mol          E_coul    
-141.31058     -230.46129      0              0            
Loop time of 2.136e-06 on 1 procs for 0 steps with 48 atoms

0.0% CPU use with 1 MPI tasks x 1 OpenMP threads

MPI task timing breakdown:
Section |  min time  |  avg time  |  max time  |%varavg| %total
---------------------------------------------------------------
Pair    | 0          | 0          | 0          |   0.0 |  0.00
Neigh   | 0          | 0          | 0          |   0.0 |  0.00
Comm    | 0          | 0          | 0          |   0.0 |  0.00
Output  | 0          | 0          | 0          |   0.0 |  0.00
Modify  | 0          | 0          | 0          |   0.0 |  0.00
Other   |            | 2.136e-06  |            |       |100.00

Nlocal:             48 ave          48 max          48 min
Histogram: 1 0 0 0 0 0 0 0 0 0
Nghost:            412 ave         412 max         412 min
Histogram: 1 0 0 0 0 0 0 0 0 0
Neighs:           1356 ave        1356 max        1356 min
Histogram: 1 0 0 0 0 0 0 0 0 0
FullNghs:         2712 ave        2712 max        2712 min
Histogram: 1 0 0 0 0 0 0 0 0 0

Total # of neighbors = 2712
Ave neighs/atom = 56.5
Neighbor list builds = 0
Dangerous builds = 0
set atom * x 0.0 y 0.0 z 0.0
Setting atom values ...
  48 settings made for x
  48 settings made for y
  48 settings made for z
change_box all     x final 0 8.76995540567932 y final 0 6.30995403047537 z final 0 54.07444487965483      xy final 2.3868886497300186 xz final 0.0 yz final 0.0 units box
Changing box ...
  triclinic box = (0 0 0) to (8.7699554 6.309954 54.074445) with tilt (2.3868886 0 0)
  triclinic box = (0 0 0) to (8.7699554 6.309954 54.074445) with tilt (2.3868886 0 0)
  triclinic box = (0 0 0) to (8.7699554 6.309954 54.074445) with tilt (2.3868886 0 0)
  triclinic box = (0 0 0) to (8.7699554 6.309954 54.074445) with tilt (2.3868886 0 0)
  triclinic box = (0 0 0) to (8.7699554 6.309954 54.074445) with tilt (2.3868886 0 0)
  triclinic box = (0 0 0) to (8.7699554 6.309954 54.074445) with tilt (2.3868886 0 0)
echo none
run 0
WARNING: No fixes with time integration, atoms won't move (src/verlet.cpp:60)
Per MPI rank memory allocation (min/avg/max) = 8.717 | 8.717 | 8.717 Mbytes
    PotEng          Pxx           E_mol          E_coul    
-141.44801     -1590.8541      0              0            
Loop time of 1.325e-06 on 1 procs for 0 steps with 48 atoms

0.0% CPU use with 1 MPI tasks x 1 OpenMP threads

MPI task timing breakdown:
Section |  min time  |  avg time  |  max time  |%varavg| %total
---------------------------------------------------------------
Pair    | 0          | 0          | 0          |   0.0 |  0.00
Neigh   | 0          | 0          | 0          |   0.0 |  0.00
Comm    | 0          | 0          | 0          |   0.0 |  0.00
Output  | 0          | 0          | 0          |   0.0 |  0.00
Modify  | 0          | 0          | 0          |   0.0 |  0.00
Other   |            | 1.325e-06  |            |       |100.00

Nlocal:             48 ave          48 max          48 min
Histogram: 1 0 0 0 0 0 0 0 0 0
Nghost:            412 ave         412 max         412 min
Histogram: 1 0 0 0 0 0 0 0 0 0
Neighs:           1356 ave        1356 max        1356 min
Histogram: 1 0 0 0 0 0 0 0 0 0
FullNghs:         2712 ave        2712 max        2712 min
Histogram: 1 0 0 0 0 0 0 0 0 0

Total # of neighbors = 2712
Ave neighs/atom = 56.5
Neighbor list builds = 0
Dangerous builds = 0
set atom * x 0.0 y 0.0 z 0.0
Setting atom values ...
  48 settings made for x
  48 settings made for y
  48 settings made for z
change_box all     x final 0 8.76995540567932 y final 0 6.30995403047537 z final 0 54.07444487965483      xy final 2.3868886497300186 xz final 0.0 yz final 0.0 units box
Changing box ...
  triclinic box = (0 0 0) to (8.7699554 6.309954 54.074445) with tilt (2.3868886 0 0)
  triclinic box = (0 0 0) to (8.7699554 6.309954 54.074445) with tilt (2.3868886 0 0)
  triclinic box = (0 0 0) to (8.7699554 6.309954 54.074445) with tilt (2.3868886 0 0)
  triclinic box = (0 0 0) to (8.7699554 6.309954 54.074445) with tilt (2.3868886 0 0)
  triclinic box = (0 0 0) to (8.7699554 6.309954 54.074445) with tilt (2.3868886 0 0)
  triclinic box = (0 0 0) to (8.7699554 6.309954 54.074445) with tilt (2.3868886 0 0)
echo none
run 0
WARNING: No fixes with time integration, atoms won't move (src/verlet.cpp:60)
Per MPI rank memory allocation (min/avg/max) = 8.717 | 8.717 | 8.717 Mbytes
    PotEng          Pxx           E_mol          E_coul    
-141.45792     -1777.5356      0              0            
Loop time of 1.466e-06 on 1 procs for 0 steps with 48 atoms

204.6% CPU use with 1 MPI tasks x 1 OpenMP threads

MPI task timing breakdown:
Section |  min time  |  avg time  |  max time  |%varavg| %total
---------------------------------------------------------------
Pair    | 0          | 0          | 0          |   0.0 |  0.00
Neigh   | 0          | 0          | 0          |   0.0 |  0.00
Comm    | 0          | 0          | 0          |   0.0 |  0.00
Output  | 0          | 0          | 0          |   0.0 |  0.00
Modify  | 0          | 0          | 0          |   0.0 |  0.00
Other   |            | 1.466e-06  |            |       |100.00

Nlocal:             48 ave          48 max          48 min
Histogram: 1 0 0 0 0 0 0 0 0 0
Nghost:            412 ave         412 max         412 min
Histogram: 1 0 0 0 0 0 0 0 0 0
Neighs:           1356 ave        1356 max        1356 min
Histogram: 1 0 0 0 0 0 0 0 0 0
FullNghs:         2712 ave        2712 max        2712 min
Histogram: 1 0 0 0 0 0 0 0 0 0

Total # of neighbors = 2712
Ave neighs/atom = 56.5
Neighbor list builds = 0
Dangerous builds = 0
set atom * x 0.0 y 0.0 z 0.0
Setting atom values ...
  48 settings made for x
  48 settings made for y
  48 settings made for z
change_box all     x final 0 8.76995540567932 y final 0 6.30995403047537 z final 0 54.07444487965483      xy final 2.3868886497300186 xz final 0.0 yz final 0.0 units box
Changing box ...
  triclinic box = (0 0 0) to (8.7699554 6.309954 54.074445) with tilt (2.3868886 0 0)
  triclinic box = (0 0 0) to (8.7699554 6.309954 54.074445) with tilt (2.3868886 0 0)
  triclinic box = (0 0 0) to (8.7699554 6.309954 54.074445) with tilt (2.3868886 0 0)
  triclinic box = (0 0 0) to (8.7699554 6.309954 54.074445) with tilt (2.3868886 0 0)
  triclinic box = (0 0 0) to (8.7699554 6.309954 54.074445) with tilt (2.3868886 0 0)
  triclinic box = (0 0 0) to (8.7699554 6.309954 54.074445) with tilt (2.3868886 0 0)
echo none
run 0
WARNING: No fixes with time integration, atoms won't move (src/verlet.cpp:60)
Per MPI rank memory allocation (min/avg/max) = 8.717 | 8.717 | 8.717 Mbytes
    PotEng          Pxx           E_mol          E_coul    
-141.4818      -2222.7582      0              0            
Loop time of 1.632e-06 on 1 procs for 0 steps with 48 atoms

245.1% CPU use with 1 MPI tasks x 1 OpenMP threads

MPI task timing breakdown:
Section |  min time  |  avg time  |  max time  |%varavg| %total
---------------------------------------------------------------
Pair    | 0          | 0          | 0          |   0.0 |  0.00
Neigh   | 0          | 0          | 0          |   0.0 |  0.00
Comm    | 0          | 0          | 0          |   0.0 |  0.00
Output  | 0          | 0          | 0          |   0.0 |  0.00
Modify  | 0          | 0          | 0          |   0.0 |  0.00
Other   |            | 1.632e-06  |            |       |100.00

Nlocal:             48 ave          48 max          48 min
Histogram: 1 0 0 0 0 0 0 0 0 0
Nghost:            412 ave         412 max         412 min
Histogram: 1 0 0 0 0 0 0 0 0 0
Neighs:           1356 ave        1356 max        1356 min
Histogram: 1 0 0 0 0 0 0 0 0 0
FullNghs:         2712 ave        2712 max        2712 min
Histogram: 1 0 0 0 0 0 0 0 0 0

Total # of neighbors = 2712
Ave neighs/atom = 56.5
Neighbor list builds = 0
Dangerous builds = 0
set atom * x 0.0 y 0.0 z 0.0
Setting atom values ...
  48 settings made for x
  48 settings made for y
  48 settings made for z
change_box all     x final 0 8.76995540567932 y final 0 6.30995403047537 z final 0 54.07444487965483      xy final 2.3868886497300186 xz final 0.0 yz final 0.0 units box
Changing box ...
  triclinic box = (0 0 0) to (8.7699554 6.309954 54.074445) with tilt (2.3868886 0 0)
  triclinic box = (0 0 0) to (8.7699554 6.309954 54.074445) with tilt (2.3868886 0 0)
  triclinic box = (0 0 0) to (8.7699554 6.309954 54.074445) with tilt (2.3868886 0 0)
  triclinic box = (0 0 0) to (8.7699554 6.309954 54.074445) with tilt (2.3868886 0 0)
  triclinic box = (0 0 0) to (8.7699554 6.309954 54.074445) with tilt (2.3868886 0 0)
  triclinic box = (0 0 0) to (8.7699554 6.309954 54.074445) with tilt (2.3868886 0 0)
echo none
run 0
WARNING: No fixes with time integration, atoms won't move (src/verlet.cpp:60)
Per MPI rank memory allocation (min/avg/max) = 8.717 | 8.717 | 8.717 Mbytes
    PotEng          Pxx           E_mol          E_coul    
-141.49306     -2431.9385      0              0            
Loop time of 1.281e-06 on 1 procs for 0 steps with 48 atoms

234.2% CPU use with 1 MPI tasks x 1 OpenMP threads

MPI task timing breakdown:
Section |  min time  |  avg time  |  max time  |%varavg| %total
---------------------------------------------------------------
Pair    | 0          | 0          | 0          |   0.0 |  0.00
Neigh   | 0          | 0          | 0          |   0.0 |  0.00
Comm    | 0          | 0          | 0          |   0.0 |  0.00
Output  | 0          | 0          | 0          |   0.0 |  0.00
Modify  | 0          | 0          | 0          |   0.0 |  0.00
Other   |            | 1.281e-06  |            |       |100.00

Nlocal:             48 ave          48 max          48 min
Histogram: 1 0 0 0 0 0 0 0 0 0
Nghost:            412 ave         412 max         412 min
Histogram: 1 0 0 0 0 0 0 0 0 0
Neighs:           1356 ave        1356 max        1356 min
Histogram: 1 0 0 0 0 0 0 0 0 0
FullNghs:         2712 ave        2712 max        2712 min
Histogram: 1 0 0 0 0 0 0 0 0 0

Total # of neighbors = 2712
Ave neighs/atom = 56.5
Neighbor list builds = 0
Dangerous builds = 0
set atom * x 0.0 y 0.0 z 0.0
Setting atom values ...
  48 settings made for x
  48 settings made for y
  48 settings made for z
change_box all     x final 0 8.76995540567932 y final 0 6.30995403047537 z final 0 54.07444487965483      xy final 2.3868886497300186 xz final 0.0 yz final 0.0 units box
Changing box ...
  triclinic box = (0 0 0) to (8.7699554 6.309954 54.074445) with tilt (2.3868886 0 0)
  triclinic box = (0 0 0) to (8.7699554 6.309954 54.074445) with tilt (2.3868886 0 0)
  triclinic box = (0 0 0) to (8.7699554 6.309954 54.074445) with tilt (2.3868886 0 0)
  triclinic box = (0 0 0) to (8.7699554 6.309954 54.074445) with tilt (2.3868886 0 0)
  triclinic box = (0 0 0) to (8.7699554 6.309954 54.074445) with tilt (2.3868886 0 0)
  triclinic box = (0 0 0) to (8.7699554 6.309954 54.074445) with tilt (2.3868886 0 0)
echo none
run 0
WARNING: No fixes with time integration, atoms won't move (src/verlet.cpp:60)
Per MPI rank memory allocation (min/avg/max) = 8.717 | 8.717 | 8.717 Mbytes
    PotEng          Pxx           E_mol          E_coul    
-141.49866     -2532.8732      0              0            
Loop time of 1.691e-06 on 1 procs for 0 steps with 48 atoms

177.4% CPU use with 1 MPI tasks x 1 OpenMP threads

MPI task timing breakdown:
Section |  min time  |  avg time  |  max time  |%varavg| %total
---------------------------------------------------------------
Pair    | 0          | 0          | 0          |   0.0 |  0.00
Neigh   | 0          | 0          | 0          |   0.0 |  0.00
Comm    | 0          | 0          | 0          |   0.0 |  0.00
Output  | 0          | 0          | 0          |   0.0 |  0.00
Modify  | 0          | 0          | 0          |   0.0 |  0.00
Other   |            | 1.691e-06  |            |       |100.00

Nlocal:             48 ave          48 max          48 min
Histogram: 1 0 0 0 0 0 0 0 0 0
Nghost:            412 ave         412 max         412 min
Histogram: 1 0 0 0 0 0 0 0 0 0
Neighs:           1356 ave        1356 max        1356 min
Histogram: 1 0 0 0 0 0 0 0 0 0
FullNghs:         2712 ave        2712 max        2712 min
Histogram: 1 0 0 0 0 0 0 0 0 0

Total # of neighbors = 2712
Ave neighs/atom = 56.5
Neighbor list builds = 0
Dangerous builds = 0
set atom * x 0.0 y 0.0 z 0.0
Setting atom values ...
  48 settings made for x
  48 settings made for y
  48 settings made for z
change_box all     x final 0 8.76995540567932 y final 0 6.30995403047537 z final 0 54.07444487965483      xy final 2.3868886497300186 xz final 0.0 yz final 0.0 units box
Changing box ...
  triclinic box = (0 0 0) to (8.7699554 6.309954 54.074445) with tilt (2.3868886 0 0)
  triclinic box = (0 0 0) to (8.7699554 6.309954 54.074445) with tilt (2.3868886 0 0)
  triclinic box = (0 0 0) to (8.7699554 6.309954 54.074445) with tilt (2.3868886 0 0)
  triclinic box = (0 0 0) to (8.7699554 6.309954 54.074445) with tilt (2.3868886 0 0)
  triclinic box = (0 0 0) to (8.7699554 6.309954 54.074445) with tilt (2.3868886 0 0)
  triclinic box = (0 0 0) to (8.7699554 6.309954 54.074445) with tilt (2.3868886 0 0)
echo none
run 0
WARNING: No fixes with time integration, atoms won't move (src/verlet.cpp:60)
Per MPI rank memory allocation (min/avg/max) = 8.717 | 8.717 | 8.717 Mbytes
    PotEng          Pxx           E_mol          E_coul    
-141.50195     -2589.3363      0              0            
Loop time of 1.958e-06 on 1 procs for 0 steps with 48 atoms

153.2% CPU use with 1 MPI tasks x 1 OpenMP threads

MPI task timing breakdown:
Section |  min time  |  avg time  |  max time  |%varavg| %total
---------------------------------------------------------------
Pair    | 0          | 0          | 0          |   0.0 |  0.00
Neigh   | 0          | 0          | 0          |   0.0 |  0.00
Comm    | 0          | 0          | 0          |   0.0 |  0.00
Output  | 0          | 0          | 0          |   0.0 |  0.00
Modify  | 0          | 0          | 0          |   0.0 |  0.00
Other   |            | 1.958e-06  |            |       |100.00

Nlocal:             48 ave          48 max          48 min
Histogram: 1 0 0 0 0 0 0 0 0 0
Nghost:            412 ave         412 max         412 min
Histogram: 1 0 0 0 0 0 0 0 0 0
Neighs:           1356 ave        1356 max        1356 min
Histogram: 1 0 0 0 0 0 0 0 0 0
FullNghs:         2712 ave        2712 max        2712 min
Histogram: 1 0 0 0 0 0 0 0 0 0

Total # of neighbors = 2712
Ave neighs/atom = 56.5
Neighbor list builds = 0
Dangerous builds = 0
set atom * x 0.0 y 0.0 z 0.0
Setting atom values ...
  48 settings made for x
  48 settings made for y
  48 settings made for z
change_box all     x final 0 8.76995540567932 y final 0 6.30995403047537 z final 0 54.07444487965483      xy final 2.3868886497300186 xz final 0.0 yz final 0.0 units box
Changing box ...
  triclinic box = (0 0 0) to (8.7699554 6.309954 54.074445) with tilt (2.3868886 0 0)
  triclinic box = (0 0 0) to (8.7699554 6.309954 54.074445) with tilt (2.3868886 0 0)
  triclinic box = (0 0 0) to (8.7699554 6.309954 54.074445) with tilt (2.3868886 0 0)
  triclinic box = (0 0 0) to (8.7699554 6.309954 54.074445) with tilt (2.3868886 0 0)
  triclinic box = (0 0 0) to (8.7699554 6.309954 54.074445) with tilt (2.3868886 0 0)
  triclinic box = (0 0 0) to (8.7699554 6.309954 54.074445) with tilt (2.3868886 0 0)
echo none
run 0
WARNING: No fixes with time integration, atoms won't move (src/verlet.cpp:60)
Per MPI rank memory allocation (min/avg/max) = 8.717 | 8.717 | 8.717 Mbytes
    PotEng          Pxx           E_mol          E_coul    
-141.50613     -2685.7082      0              0            
Loop time of 1.624e-06 on 1 procs for 0 steps with 48 atoms

246.3% CPU use with 1 MPI tasks x 1 OpenMP threads

MPI task timing breakdown:
Section |  min time  |  avg time  |  max time  |%varavg| %total
---------------------------------------------------------------
Pair    | 0          | 0          | 0          |   0.0 |  0.00
Neigh   | 0          | 0          | 0          |   0.0 |  0.00
Comm    | 0          | 0          | 0          |   0.0 |  0.00
Output  | 0          | 0          | 0          |   0.0 |  0.00
Modify  | 0          | 0          | 0          |   0.0 |  0.00
Other   |            | 1.624e-06  |            |       |100.00

Nlocal:             48 ave          48 max          48 min
Histogram: 1 0 0 0 0 0 0 0 0 0
Nghost:            412 ave         412 max         412 min
Histogram: 1 0 0 0 0 0 0 0 0 0
Neighs:           1356 ave        1356 max        1356 min
Histogram: 1 0 0 0 0 0 0 0 0 0
FullNghs:         2712 ave        2712 max        2712 min
Histogram: 1 0 0 0 0 0 0 0 0 0

Total # of neighbors = 2712
Ave neighs/atom = 56.5
Neighbor list builds = 0
Dangerous builds = 0
set atom * x 0.0 y 0.0 z 0.0
Setting atom values ...
  48 settings made for x
  48 settings made for y
  48 settings made for z
change_box all     x final 0 8.76995540567932 y final 0 6.30995403047537 z final 0 54.07444487965483      xy final 2.3868886497300186 xz final 0.0 yz final 0.0 units box
Changing box ...
  triclinic box = (0 0 0) to (8.7699554 6.309954 54.074445) with tilt (2.3868886 0 0)
  triclinic box = (0 0 0) to (8.7699554 6.309954 54.074445) with tilt (2.3868886 0 0)
  triclinic box = (0 0 0) to (8.7699554 6.309954 54.074445) with tilt (2.3868886 0 0)
  triclinic box = (0 0 0) to (8.7699554 6.309954 54.074445) with tilt (2.3868886 0 0)
  triclinic box = (0 0 0) to (8.7699554 6.309954 54.074445) with tilt (2.3868886 0 0)
  triclinic box = (0 0 0) to (8.7699554 6.309954 54.074445) with tilt (2.3868886 0 0)
echo none
run 0
WARNING: No fixes with time integration, atoms won't move (src/verlet.cpp:60)
Per MPI rank memory allocation (min/avg/max) = 8.717 | 8.717 | 8.717 Mbytes
    PotEng          Pxx           E_mol          E_coul    
-141.51044     -2828.457       0              0            
Loop time of 1.076e-06 on 1 procs for 0 steps with 48 atoms

185.9% CPU use with 1 MPI tasks x 1 OpenMP threads

MPI task timing breakdown:
Section |  min time  |  avg time  |  max time  |%varavg| %total
---------------------------------------------------------------
Pair    | 0          | 0          | 0          |   0.0 |  0.00
Neigh   | 0          | 0          | 0          |   0.0 |  0.00
Comm    | 0          | 0          | 0          |   0.0 |  0.00
Output  | 0          | 0          | 0          |   0.0 |  0.00
Modify  | 0          | 0          | 0          |   0.0 |  0.00
Other   |            | 1.076e-06  |            |       |100.00

Nlocal:             48 ave          48 max          48 min
Histogram: 1 0 0 0 0 0 0 0 0 0
Nghost:            412 ave         412 max         412 min
Histogram: 1 0 0 0 0 0 0 0 0 0
Neighs:           1356 ave        1356 max        1356 min
Histogram: 1 0 0 0 0 0 0 0 0 0
FullNghs:         2712 ave        2712 max        2712 min
Histogram: 1 0 0 0 0 0 0 0 0 0

Total # of neighbors = 2712
Ave neighs/atom = 56.5
Neighbor list builds = 0
Dangerous builds = 0
set atom * x 0.0 y 0.0 z 0.0
Setting atom values ...
  48 settings made for x
  48 settings made for y
  48 settings made for z
change_box all     x final 0 8.76995540567932 y final 0 6.30995403047537 z final 0 54.07444487965483      xy final 2.3868886497300186 xz final 0.0 yz final 0.0 units box
Changing box ...
  triclinic box = (0 0 0) to (8.7699554 6.309954 54.074445) with tilt (2.3868886 0 0)
  triclinic box = (0 0 0) to (8.7699554 6.309954 54.074445) with tilt (2.3868886 0 0)
  triclinic box = (0 0 0) to (8.7699554 6.309954 54.074445) with tilt (2.3868886 0 0)
  triclinic box = (0 0 0) to (8.7699554 6.309954 54.074445) with tilt (2.3868886 0 0)
  triclinic box = (0 0 0) to (8.7699554 6.309954 54.074445) with tilt (2.3868886 0 0)
  triclinic box = (0 0 0) to (8.7699554 6.309954 54.074445) with tilt (2.3868886 0 0)
echo none
run 0
WARNING: No fixes with time integration, atoms won't move (src/verlet.cpp:60)
Per MPI rank memory allocation (min/avg/max) = 8.717 | 8.717 | 8.717 Mbytes
    PotEng          Pxx           E_mol          E_coul    
-141.51398     -2979.004       0              0            
Loop time of 1.382e-06 on 1 procs for 0 steps with 48 atoms

144.7% CPU use with 1 MPI tasks x 1 OpenMP threads

MPI task timing breakdown:
Section |  min time  |  avg time  |  max time  |%varavg| %total
---------------------------------------------------------------
Pair    | 0          | 0          | 0          |   0.0 |  0.00
Neigh   | 0          | 0          | 0          |   0.0 |  0.00
Comm    | 0          | 0          | 0          |   0.0 |  0.00
Output  | 0          | 0          | 0          |   0.0 |  0.00
Modify  | 0          | 0          | 0          |   0.0 |  0.00
Other   |            | 1.382e-06  |            |       |100.00

Nlocal:             48 ave          48 max          48 min
Histogram: 1 0 0 0 0 0 0 0 0 0
Nghost:            412 ave         412 max         412 min
Histogram: 1 0 0 0 0 0 0 0 0 0
Neighs:           1356 ave        1356 max        1356 min
Histogram: 1 0 0 0 0 0 0 0 0 0
FullNghs:         2712 ave        2712 max        2712 min
Histogram: 1 0 0 0 0 0 0 0 0 0

Total # of neighbors = 2712
Ave neighs/atom = 56.5
Neighbor list builds = 0
Dangerous builds = 0
set atom * x 0.0 y 0.0 z 0.0
Setting atom values ...
  48 settings made for x
  48 settings made for y
  48 settings made for z
change_box all     x final 0 8.76995540567932 y final 0 6.30995403047537 z final 0 54.07444487965483      xy final 2.3868886497300186 xz final 0.0 yz final 0.0 units box
Changing box ...
  triclinic box = (0 0 0) to (8.7699554 6.309954 54.074445) with tilt (2.3868886 0 0)
  triclinic box = (0 0 0) to (8.7699554 6.309954 54.074445) with tilt (2.3868886 0 0)
  triclinic box = (0 0 0) to (8.7699554 6.309954 54.074445) with tilt (2.3868886 0 0)
  triclinic box = (0 0 0) to (8.7699554 6.309954 54.074445) with tilt (2.3868886 0 0)
  triclinic box = (0 0 0) to (8.7699554 6.309954 54.074445) with tilt (2.3868886 0 0)
  triclinic box = (0 0 0) to (8.7699554 6.309954 54.074445) with tilt (2.3868886 0 0)
echo none
run 0
WARNING: No fixes with time integration, atoms won't move (src/verlet.cpp:60)
Per MPI rank memory allocation (min/avg/max) = 8.717 | 8.717 | 8.717 Mbytes
    PotEng          Pxx           E_mol          E_coul    
-141.51656     -3080.2119      0              0            
Loop time of 1.271e-06 on 1 procs for 0 steps with 48 atoms

236.0% CPU use with 1 MPI tasks x 1 OpenMP threads

MPI task timing breakdown:
Section |  min time  |  avg time  |  max time  |%varavg| %total
---------------------------------------------------------------
Pair    | 0          | 0          | 0          |   0.0 |  0.00
Neigh   | 0          | 0          | 0          |   0.0 |  0.00
Comm    | 0          | 0          | 0          |   0.0 |  0.00
Output  | 0          | 0          | 0          |   0.0 |  0.00
Modify  | 0          | 0          | 0          |   0.0 |  0.00
Other   |            | 1.271e-06  |            |       |100.00

Nlocal:             48 ave          48 max          48 min
Histogram: 1 0 0 0 0 0 0 0 0 0
Nghost:            412 ave         412 max         412 min
Histogram: 1 0 0 0 0 0 0 0 0 0
Neighs:           1356 ave        1356 max        1356 min
Histogram: 1 0 0 0 0 0 0 0 0 0
FullNghs:         2712 ave        2712 max        2712 min
Histogram: 1 0 0 0 0 0 0 0 0 0

Total # of neighbors = 2712
Ave neighs/atom = 56.5
Neighbor list builds = 0
Dangerous builds = 0
set atom * x 0.0 y 0.0 z 0.0
Setting atom values ...
  48 settings made for x
  48 settings made for y
  48 settings made for z
change_box all     x final 0 8.76995540567932 y final 0 6.30995403047537 z final 0 54.07444487965483      xy final 2.3868886497300186 xz final 0.0 yz final 0.0 units box
Changing box ...
  triclinic box = (0 0 0) to (8.7699554 6.309954 54.074445) with tilt (2.3868886 0 0)
  triclinic box = (0 0 0) to (8.7699554 6.309954 54.074445) with tilt (2.3868886 0 0)
  triclinic box = (0 0 0) to (8.7699554 6.309954 54.074445) with tilt (2.3868886 0 0)
  triclinic box = (0 0 0) to (8.7699554 6.309954 54.074445) with tilt (2.3868886 0 0)
  triclinic box = (0 0 0) to (8.7699554 6.309954 54.074445) with tilt (2.3868886 0 0)
  triclinic box = (0 0 0) to (8.7699554 6.309954 54.074445) with tilt (2.3868886 0 0)
echo none
run 0
WARNING: No fixes with time integration, atoms won't move (src/verlet.cpp:60)
Per MPI rank memory allocation (min/avg/max) = 8.717 | 8.717 | 8.717 Mbytes
    PotEng          Pxx           E_mol          E_coul    
-141.51931     -3145.9265      0              0            
Loop time of 1.292e-06 on 1 procs for 0 steps with 48 atoms

154.8% CPU use with 1 MPI tasks x 1 OpenMP threads

MPI task timing breakdown:
Section |  min time  |  avg time  |  max time  |%varavg| %total
---------------------------------------------------------------
Pair    | 0          | 0          | 0          |   0.0 |  0.00
Neigh   | 0          | 0          | 0          |   0.0 |  0.00
Comm    | 0          | 0          | 0          |   0.0 |  0.00
Output  | 0          | 0          | 0          |   0.0 |  0.00
Modify  | 0          | 0          | 0          |   0.0 |  0.00
Other   |            | 1.292e-06  |            |       |100.00

Nlocal:             48 ave          48 max          48 min
Histogram: 1 0 0 0 0 0 0 0 0 0
Nghost:            412 ave         412 max         412 min
Histogram: 1 0 0 0 0 0 0 0 0 0
Neighs:           1356 ave        1356 max        1356 min
Histogram: 1 0 0 0 0 0 0 0 0 0
FullNghs:         2712 ave        2712 max        2712 min
Histogram: 1 0 0 0 0 0 0 0 0 0

Total # of neighbors = 2712
Ave neighs/atom = 56.5
Neighbor list builds = 0
Dangerous builds = 0
set atom * x 0.0 y 0.0 z 0.0
Setting atom values ...
  48 settings made for x
  48 settings made for y
  48 settings made for z
change_box all     x final 0 8.76995540567932 y final 0 6.30995403047537 z final 0 54.07444487965483      xy final 2.3868886497300186 xz final 0.0 yz final 0.0 units box
Changing box ...
  triclinic box = (0 0 0) to (8.7699554 6.309954 54.074445) with tilt (2.3868886 0 0)
  triclinic box = (0 0 0) to (8.7699554 6.309954 54.074445) with tilt (2.3868886 0 0)
  triclinic box = (0 0 0) to (8.7699554 6.309954 54.074445) with tilt (2.3868886 0 0)
  triclinic box = (0 0 0) to (8.7699554 6.309954 54.074445) with tilt (2.3868886 0 0)
  triclinic box = (0 0 0) to (8.7699554 6.309954 54.074445) with tilt (2.3868886 0 0)
  triclinic box = (0 0 0) to (8.7699554 6.309954 54.074445) with tilt (2.3868886 0 0)
echo none
run 0
WARNING: No fixes with time integration, atoms won't move (src/verlet.cpp:60)
Per MPI rank memory allocation (min/avg/max) = 8.717 | 8.717 | 8.717 Mbytes
    PotEng          Pxx           E_mol          E_coul    
-141.52212     -3163.0078      0              0            
Loop time of 1.325e-06 on 1 procs for 0 steps with 48 atoms

226.4% CPU use with 1 MPI tasks x 1 OpenMP threads

MPI task timing breakdown:
Section |  min time  |  avg time  |  max time  |%varavg| %total
---------------------------------------------------------------
Pair    | 0          | 0          | 0          |   0.0 |  0.00
Neigh   | 0          | 0          | 0          |   0.0 |  0.00
Comm    | 0          | 0          | 0          |   0.0 |  0.00
Output  | 0          | 0          | 0          |   0.0 |  0.00
Modify  | 0          | 0          | 0          |   0.0 |  0.00
Other   |            | 1.325e-06  |            |       |100.00

Nlocal:             48 ave          48 max          48 min
Histogram: 1 0 0 0 0 0 0 0 0 0
Nghost:            412 ave         412 max         412 min
Histogram: 1 0 0 0 0 0 0 0 0 0
Neighs:           1356 ave        1356 max        1356 min
Histogram: 1 0 0 0 0 0 0 0 0 0
FullNghs:         2712 ave        2712 max        2712 min
Histogram: 1 0 0 0 0 0 0 0 0 0

Total # of neighbors = 2712
Ave neighs/atom = 56.5
Neighbor list builds = 0
Dangerous builds = 0
set atom * x 0.0 y 0.0 z 0.0
Setting atom values ...
  48 settings made for x
  48 settings made for y
  48 settings made for z
change_box all     x final 0 8.76995540567932 y final 0 6.30995403047537 z final 0 54.07444487965483      xy final 2.3868886497300186 xz final 0.0 yz final 0.0 units box
Changing box ...
  triclinic box = (0 0 0) to (8.7699554 6.309954 54.074445) with tilt (2.3868886 0 0)
  triclinic box = (0 0 0) to (8.7699554 6.309954 54.074445) with tilt (2.3868886 0 0)
  triclinic box = (0 0 0) to (8.7699554 6.309954 54.074445) with tilt (2.3868886 0 0)
  triclinic box = (0 0 0) to (8.7699554 6.309954 54.074445) with tilt (2.3868886 0 0)
  triclinic box = (0 0 0) to (8.7699554 6.309954 54.074445) with tilt (2.3868886 0 0)
  triclinic box = (0 0 0) to (8.7699554 6.309954 54.074445) with tilt (2.3868886 0 0)
echo none
run 0
WARNING: No fixes with time integration, atoms won't move (src/verlet.cpp:60)
Per MPI rank memory allocation (min/avg/max) = 8.717 | 8.717 | 8.717 Mbytes
    PotEng          Pxx           E_mol          E_coul    
-141.52412     -3130.9806      0              0            
Loop time of 1.144e-06 on 1 procs for 0 steps with 48 atoms

174.8% CPU use with 1 MPI tasks x 1 OpenMP threads

MPI task timing breakdown:
Section |  min time  |  avg time  |  max time  |%varavg| %total
---------------------------------------------------------------
Pair    | 0          | 0          | 0          |   0.0 |  0.00
Neigh   | 0          | 0          | 0          |   0.0 |  0.00
Comm    | 0          | 0          | 0          |   0.0 |  0.00
Output  | 0          | 0          | 0          |   0.0 |  0.00
Modify  | 0          | 0          | 0          |   0.0 |  0.00
Other   |            | 1.144e-06  |            |       |100.00

Nlocal:             48 ave          48 max          48 min
Histogram: 1 0 0 0 0 0 0 0 0 0
Nghost:            415 ave         415 max         415 min
Histogram: 1 0 0 0 0 0 0 0 0 0
Neighs:           1356 ave        1356 max        1356 min
Histogram: 1 0 0 0 0 0 0 0 0 0
FullNghs:         2712 ave        2712 max        2712 min
Histogram: 1 0 0 0 0 0 0 0 0 0

Total # of neighbors = 2712
Ave neighs/atom = 56.5
Neighbor list builds = 0
Dangerous builds = 0
set atom * x 0.0 y 0.0 z 0.0
Setting atom values ...
  48 settings made for x
  48 settings made for y
  48 settings made for z
change_box all     x final 0 8.76995540567932 y final 0 6.30995403047537 z final 0 54.07444487965483      xy final 2.3868886497300186 xz final 0.0 yz final 0.0 units box
Changing box ...
  triclinic box = (0 0 0) to (8.7699554 6.309954 54.074445) with tilt (2.3868886 0 0)
  triclinic box = (0 0 0) to (8.7699554 6.309954 54.074445) with tilt (2.3868886 0 0)
  triclinic box = (0 0 0) to (8.7699554 6.309954 54.074445) with tilt (2.3868886 0 0)
  triclinic box = (0 0 0) to (8.7699554 6.309954 54.074445) with tilt (2.3868886 0 0)
  triclinic box = (0 0 0) to (8.7699554 6.309954 54.074445) with tilt (2.3868886 0 0)
  triclinic box = (0 0 0) to (8.7699554 6.309954 54.074445) with tilt (2.3868886 0 0)
echo none
run 0
WARNING: No fixes with time integration, atoms won't move (src/verlet.cpp:60)
Per MPI rank memory allocation (min/avg/max) = 8.717 | 8.717 | 8.717 Mbytes
    PotEng          Pxx           E_mol          E_coul    
-141.52525     -3088.3767      0              0            
Loop time of 1.441e-06 on 1 procs for 0 steps with 48 atoms

138.8% CPU use with 1 MPI tasks x 1 OpenMP threads

MPI task timing breakdown:
Section |  min time  |  avg time  |  max time  |%varavg| %total
---------------------------------------------------------------
Pair    | 0          | 0          | 0          |   0.0 |  0.00
Neigh   | 0          | 0          | 0          |   0.0 |  0.00
Comm    | 0          | 0          | 0          |   0.0 |  0.00
Output  | 0          | 0          | 0          |   0.0 |  0.00
Modify  | 0          | 0          | 0          |   0.0 |  0.00
Other   |            | 1.441e-06  |            |       |100.00

Nlocal:             48 ave          48 max          48 min
Histogram: 1 0 0 0 0 0 0 0 0 0
Nghost:            415 ave         415 max         415 min
Histogram: 1 0 0 0 0 0 0 0 0 0
Neighs:           1356 ave        1356 max        1356 min
Histogram: 1 0 0 0 0 0 0 0 0 0
FullNghs:         2712 ave        2712 max        2712 min
Histogram: 1 0 0 0 0 0 0 0 0 0

Total # of neighbors = 2712
Ave neighs/atom = 56.5
Neighbor list builds = 0
Dangerous builds = 0
set atom * x 0.0 y 0.0 z 0.0
Setting atom values ...
  48 settings made for x
  48 settings made for y
  48 settings made for z
change_box all     x final 0 8.76995540567932 y final 0 6.30995403047537 z final 0 54.07444487965483      xy final 2.3868886497300186 xz final 0.0 yz final 0.0 units box
Changing box ...
  triclinic box = (0 0 0) to (8.7699554 6.309954 54.074445) with tilt (2.3868886 0 0)
  triclinic box = (0 0 0) to (8.7699554 6.309954 54.074445) with tilt (2.3868886 0 0)
  triclinic box = (0 0 0) to (8.7699554 6.309954 54.074445) with tilt (2.3868886 0 0)
  triclinic box = (0 0 0) to (8.7699554 6.309954 54.074445) with tilt (2.3868886 0 0)
  triclinic box = (0 0 0) to (8.7699554 6.309954 54.074445) with tilt (2.3868886 0 0)
  triclinic box = (0 0 0) to (8.7699554 6.309954 54.074445) with tilt (2.3868886 0 0)
echo none
run 0
WARNING: No fixes with time integration, atoms won't move (src/verlet.cpp:60)
Per MPI rank memory allocation (min/avg/max) = 8.717 | 8.717 | 8.717 Mbytes
    PotEng          Pxx           E_mol          E_coul    
-141.52613     -3055.5437      0              0            
Loop time of 1.253e-06 on 1 procs for 0 steps with 48 atoms

159.6% CPU use with 1 MPI tasks x 1 OpenMP threads

MPI task timing breakdown:
Section |  min time  |  avg time  |  max time  |%varavg| %total
---------------------------------------------------------------
Pair    | 0          | 0          | 0          |   0.0 |  0.00
Neigh   | 0          | 0          | 0          |   0.0 |  0.00
Comm    | 0          | 0          | 0          |   0.0 |  0.00
Output  | 0          | 0          | 0          |   0.0 |  0.00
Modify  | 0          | 0          | 0          |   0.0 |  0.00
Other   |            | 1.253e-06  |            |       |100.00

Nlocal:             48 ave          48 max          48 min
Histogram: 1 0 0 0 0 0 0 0 0 0
Nghost:            415 ave         415 max         415 min
Histogram: 1 0 0 0 0 0 0 0 0 0
Neighs:           1356 ave        1356 max        1356 min
Histogram: 1 0 0 0 0 0 0 0 0 0
FullNghs:         2712 ave        2712 max        2712 min
Histogram: 1 0 0 0 0 0 0 0 0 0

Total # of neighbors = 2712
Ave neighs/atom = 56.5
Neighbor list builds = 0
Dangerous builds = 0
set atom * x 0.0 y 0.0 z 0.0
Setting atom values ...
  48 settings made for x
  48 settings made for y
  48 settings made for z
change_box all     x final 0 8.76995540567932 y final 0 6.30995403047537 z final 0 54.07444487965483      xy final 2.3868886497300186 xz final 0.0 yz final 0.0 units box
Changing box ...
  triclinic box = (0 0 0) to (8.7699554 6.309954 54.074445) with tilt (2.3868886 0 0)
  triclinic box = (0 0 0) to (8.7699554 6.309954 54.074445) with tilt (2.3868886 0 0)
  triclinic box = (0 0 0) to (8.7699554 6.309954 54.074445) with tilt (2.3868886 0 0)
  triclinic box = (0 0 0) to (8.7699554 6.309954 54.074445) with tilt (2.3868886 0 0)
  triclinic box = (0 0 0) to (8.7699554 6.309954 54.074445) with tilt (2.3868886 0 0)
  triclinic box = (0 0 0) to (8.7699554 6.309954 54.074445) with tilt (2.3868886 0 0)
echo none
run 0
WARNING: No fixes with time integration, atoms won't move (src/verlet.cpp:60)
Per MPI rank memory allocation (min/avg/max) = 8.717 | 8.717 | 8.717 Mbytes
    PotEng          Pxx           E_mol          E_coul    
-141.52726     -3028.8084      0              0            
Loop time of 1.47e-06 on 1 procs for 0 steps with 48 atoms

204.1% CPU use with 1 MPI tasks x 1 OpenMP threads

MPI task timing breakdown:
Section |  min time  |  avg time  |  max time  |%varavg| %total
---------------------------------------------------------------
Pair    | 0          | 0          | 0          |   0.0 |  0.00
Neigh   | 0          | 0          | 0          |   0.0 |  0.00
Comm    | 0          | 0          | 0          |   0.0 |  0.00
Output  | 0          | 0          | 0          |   0.0 |  0.00
Modify  | 0          | 0          | 0          |   0.0 |  0.00
Other   |            | 1.47e-06   |            |       |100.00

Nlocal:             48 ave          48 max          48 min
Histogram: 1 0 0 0 0 0 0 0 0 0
Nghost:            415 ave         415 max         415 min
Histogram: 1 0 0 0 0 0 0 0 0 0
Neighs:           1356 ave        1356 max        1356 min
Histogram: 1 0 0 0 0 0 0 0 0 0
FullNghs:         2712 ave        2712 max        2712 min
Histogram: 1 0 0 0 0 0 0 0 0 0

Total # of neighbors = 2712
Ave neighs/atom = 56.5
Neighbor list builds = 0
Dangerous builds = 0
set atom * x 0.0 y 0.0 z 0.0
Setting atom values ...
  48 settings made for x
  48 settings made for y
  48 settings made for z
change_box all     x final 0 8.76995540567932 y final 0 6.30995403047537 z final 0 54.07444487965483      xy final 2.3868886497300186 xz final 0.0 yz final 0.0 units box
Changing box ...
  triclinic box = (0 0 0) to (8.7699554 6.309954 54.074445) with tilt (2.3868886 0 0)
  triclinic box = (0 0 0) to (8.7699554 6.309954 54.074445) with tilt (2.3868886 0 0)
  triclinic box = (0 0 0) to (8.7699554 6.309954 54.074445) with tilt (2.3868886 0 0)
  triclinic box = (0 0 0) to (8.7699554 6.309954 54.074445) with tilt (2.3868886 0 0)
  triclinic box = (0 0 0) to (8.7699554 6.309954 54.074445) with tilt (2.3868886 0 0)
  triclinic box = (0 0 0) to (8.7699554 6.309954 54.074445) with tilt (2.3868886 0 0)
echo none
run 0
WARNING: No fixes with time integration, atoms won't move (src/verlet.cpp:60)
Per MPI rank memory allocation (min/avg/max) = 8.717 | 8.717 | 8.717 Mbytes
    PotEng          Pxx           E_mol          E_coul    
-141.52862     -3016.4836      0              0            
Loop time of 1.847e-06 on 1 procs for 0 steps with 48 atoms

216.6% CPU use with 1 MPI tasks x 1 OpenMP threads

MPI task timing breakdown:
Section |  min time  |  avg time  |  max time  |%varavg| %total
---------------------------------------------------------------
Pair    | 0          | 0          | 0          |   0.0 |  0.00
Neigh   | 0          | 0          | 0          |   0.0 |  0.00
Comm    | 0          | 0          | 0          |   0.0 |  0.00
Output  | 0          | 0          | 0          |   0.0 |  0.00
Modify  | 0          | 0          | 0          |   0.0 |  0.00
Other   |            | 1.847e-06  |            |       |100.00

Nlocal:             48 ave          48 max          48 min
Histogram: 1 0 0 0 0 0 0 0 0 0
Nghost:            415 ave         415 max         415 min
Histogram: 1 0 0 0 0 0 0 0 0 0
Neighs:           1356 ave        1356 max        1356 min
Histogram: 1 0 0 0 0 0 0 0 0 0
FullNghs:         2712 ave        2712 max        2712 min
Histogram: 1 0 0 0 0 0 0 0 0 0

Total # of neighbors = 2712
Ave neighs/atom = 56.5
Neighbor list builds = 0
Dangerous builds = 0
set atom * x 0.0 y 0.0 z 0.0
Setting atom values ...
  48 settings made for x
  48 settings made for y
  48 settings made for z
change_box all     x final 0 8.76995540567932 y final 0 6.30995403047537 z final 0 54.07444487965483      xy final 2.3868886497300186 xz final 0.0 yz final 0.0 units box
Changing box ...
  triclinic box = (0 0 0) to (8.7699554 6.309954 54.074445) with tilt (2.3868886 0 0)
  triclinic box = (0 0 0) to (8.7699554 6.309954 54.074445) with tilt (2.3868886 0 0)
  triclinic box = (0 0 0) to (8.7699554 6.309954 54.074445) with tilt (2.3868886 0 0)
  triclinic box = (0 0 0) to (8.7699554 6.309954 54.074445) with tilt (2.3868886 0 0)
  triclinic box = (0 0 0) to (8.7699554 6.309954 54.074445) with tilt (2.3868886 0 0)
  triclinic box = (0 0 0) to (8.7699554 6.309954 54.074445) with tilt (2.3868886 0 0)
echo none
run 0
WARNING: No fixes with time integration, atoms won't move (src/verlet.cpp:60)
Per MPI rank memory allocation (min/avg/max) = 8.717 | 8.717 | 8.717 Mbytes
    PotEng          Pxx           E_mol          E_coul    
-141.52972     -3022.5473      0              0            
Loop time of 2.334e-06 on 1 procs for 0 steps with 48 atoms

171.4% CPU use with 1 MPI tasks x 1 OpenMP threads

MPI task timing breakdown:
Section |  min time  |  avg time  |  max time  |%varavg| %total
---------------------------------------------------------------
Pair    | 0          | 0          | 0          |   0.0 |  0.00
Neigh   | 0          | 0          | 0          |   0.0 |  0.00
Comm    | 0          | 0          | 0          |   0.0 |  0.00
Output  | 0          | 0          | 0          |   0.0 |  0.00
Modify  | 0          | 0          | 0          |   0.0 |  0.00
Other   |            | 2.334e-06  |            |       |100.00

Nlocal:             48 ave          48 max          48 min
Histogram: 1 0 0 0 0 0 0 0 0 0
Nghost:            418 ave         418 max         418 min
Histogram: 1 0 0 0 0 0 0 0 0 0
Neighs:           1356 ave        1356 max        1356 min
Histogram: 1 0 0 0 0 0 0 0 0 0
FullNghs:         2712 ave        2712 max        2712 min
Histogram: 1 0 0 0 0 0 0 0 0 0

Total # of neighbors = 2712
Ave neighs/atom = 56.5
Neighbor list builds = 0
Dangerous builds = 0
set atom * x 0.0 y 0.0 z 0.0
Setting atom values ...
  48 settings made for x
  48 settings made for y
  48 settings made for z
change_box all     x final 0 8.76995540567932 y final 0 6.30995403047537 z final 0 54.07444487965483      xy final 2.3868886497300186 xz final 0.0 yz final 0.0 units box
Changing box ...
  triclinic box = (0 0 0) to (8.7699554 6.309954 54.074445) with tilt (2.3868886 0 0)
  triclinic box = (0 0 0) to (8.7699554 6.309954 54.074445) with tilt (2.3868886 0 0)
  triclinic box = (0 0 0) to (8.7699554 6.309954 54.074445) with tilt (2.3868886 0 0)
  triclinic box = (0 0 0) to (8.7699554 6.309954 54.074445) with tilt (2.3868886 0 0)
  triclinic box = (0 0 0) to (8.7699554 6.309954 54.074445) with tilt (2.3868886 0 0)
  triclinic box = (0 0 0) to (8.7699554 6.309954 54.074445) with tilt (2.3868886 0 0)
echo none
run 0
WARNING: No fixes with time integration, atoms won't move (src/verlet.cpp:60)
Per MPI rank memory allocation (min/avg/max) = 8.717 | 8.717 | 8.717 Mbytes
    PotEng          Pxx           E_mol          E_coul    
-141.53044     -3030.1713      0              0            
Loop time of 1.993e-06 on 1 procs for 0 steps with 48 atoms

150.5% CPU use with 1 MPI tasks x 1 OpenMP threads

MPI task timing breakdown:
Section |  min time  |  avg time  |  max time  |%varavg| %total
---------------------------------------------------------------
Pair    | 0          | 0          | 0          |   0.0 |  0.00
Neigh   | 0          | 0          | 0          |   0.0 |  0.00
Comm    | 0          | 0          | 0          |   0.0 |  0.00
Output  | 0          | 0          | 0          |   0.0 |  0.00
Modify  | 0          | 0          | 0          |   0.0 |  0.00
Other   |            | 1.993e-06  |            |       |100.00

Nlocal:             48 ave          48 max          48 min
Histogram: 1 0 0 0 0 0 0 0 0 0
Nghost:            418 ave         418 max         418 min
Histogram: 1 0 0 0 0 0 0 0 0 0
Neighs:           1356 ave        1356 max        1356 min
Histogram: 1 0 0 0 0 0 0 0 0 0
FullNghs:         2712 ave        2712 max        2712 min
Histogram: 1 0 0 0 0 0 0 0 0 0

Total # of neighbors = 2712
Ave neighs/atom = 56.5
Neighbor list builds = 0
Dangerous builds = 0
set atom * x 0.0 y 0.0 z 0.0
Setting atom values ...
  48 settings made for x
  48 settings made for y
  48 settings made for z
change_box all     x final 0 8.76995540567932 y final 0 6.30995403047537 z final 0 54.07444487965483      xy final 2.3868886497300186 xz final 0.0 yz final 0.0 units box
Changing box ...
  triclinic box = (0 0 0) to (8.7699554 6.309954 54.074445) with tilt (2.3868886 0 0)
  triclinic box = (0 0 0) to (8.7699554 6.309954 54.074445) with tilt (2.3868886 0 0)
  triclinic box = (0 0 0) to (8.7699554 6.309954 54.074445) with tilt (2.3868886 0 0)
  triclinic box = (0 0 0) to (8.7699554 6.309954 54.074445) with tilt (2.3868886 0 0)
  triclinic box = (0 0 0) to (8.7699554 6.309954 54.074445) with tilt (2.3868886 0 0)
  triclinic box = (0 0 0) to (8.7699554 6.309954 54.074445) with tilt (2.3868886 0 0)
echo none
run 0
WARNING: No fixes with time integration, atoms won't move (src/verlet.cpp:60)
Per MPI rank memory allocation (min/avg/max) = 8.717 | 8.717 | 8.717 Mbytes
    PotEng          Pxx           E_mol          E_coul    
-141.53114     -3025.8823      0              0            
Loop time of 1.751e-06 on 1 procs for 0 steps with 48 atoms

171.3% CPU use with 1 MPI tasks x 1 OpenMP threads

MPI task timing breakdown:
Section |  min time  |  avg time  |  max time  |%varavg| %total
---------------------------------------------------------------
Pair    | 0          | 0          | 0          |   0.0 |  0.00
Neigh   | 0          | 0          | 0          |   0.0 |  0.00
Comm    | 0          | 0          | 0          |   0.0 |  0.00
Output  | 0          | 0          | 0          |   0.0 |  0.00
Modify  | 0          | 0          | 0          |   0.0 |  0.00
Other   |            | 1.751e-06  |            |       |100.00

Nlocal:             48 ave          48 max          48 min
Histogram: 1 0 0 0 0 0 0 0 0 0
Nghost:            418 ave         418 max         418 min
Histogram: 1 0 0 0 0 0 0 0 0 0
Neighs:           1356 ave        1356 max        1356 min
Histogram: 1 0 0 0 0 0 0 0 0 0
FullNghs:         2712 ave        2712 max        2712 min
Histogram: 1 0 0 0 0 0 0 0 0 0

Total # of neighbors = 2712
Ave neighs/atom = 56.5
Neighbor list builds = 0
Dangerous builds = 0
set atom * x 0.0 y 0.0 z 0.0
Setting atom values ...
  48 settings made for x
  48 settings made for y
  48 settings made for z
change_box all     x final 0 8.76995540567932 y final 0 6.30995403047537 z final 0 54.07444487965483      xy final 2.3868886497300186 xz final 0.0 yz final 0.0 units box
Changing box ...
  triclinic box = (0 0 0) to (8.7699554 6.309954 54.074445) with tilt (2.3868886 0 0)
  triclinic box = (0 0 0) to (8.7699554 6.309954 54.074445) with tilt (2.3868886 0 0)
  triclinic box = (0 0 0) to (8.7699554 6.309954 54.074445) with tilt (2.3868886 0 0)
  triclinic box = (0 0 0) to (8.7699554 6.309954 54.074445) with tilt (2.3868886 0 0)
  triclinic box = (0 0 0) to (8.7699554 6.309954 54.074445) with tilt (2.3868886 0 0)
  triclinic box = (0 0 0) to (8.7699554 6.309954 54.074445) with tilt (2.3868886 0 0)
echo none
run 0
WARNING: No fixes with time integration, atoms won't move (src/verlet.cpp:60)
Per MPI rank memory allocation (min/avg/max) = 8.717 | 8.717 | 8.717 Mbytes
    PotEng          Pxx           E_mol          E_coul    
-141.53209     -2996.7503      0              0            
Loop time of 1.067e-06 on 1 procs for 0 steps with 48 atoms

187.4% CPU use with 1 MPI tasks x 1 OpenMP threads

MPI task timing breakdown:
Section |  min time  |  avg time  |  max time  |%varavg| %total
---------------------------------------------------------------
Pair    | 0          | 0          | 0          |   0.0 |  0.00
Neigh   | 0          | 0          | 0          |   0.0 |  0.00
Comm    | 0          | 0          | 0          |   0.0 |  0.00
Output  | 0          | 0          | 0          |   0.0 |  0.00
Modify  | 0          | 0          | 0          |   0.0 |  0.00
Other   |            | 1.067e-06  |            |       |100.00

Nlocal:             48 ave          48 max          48 min
Histogram: 1 0 0 0 0 0 0 0 0 0
Nghost:            418 ave         418 max         418 min
Histogram: 1 0 0 0 0 0 0 0 0 0
Neighs:           1356 ave        1356 max        1356 min
Histogram: 1 0 0 0 0 0 0 0 0 0
FullNghs:         2712 ave        2712 max        2712 min
Histogram: 1 0 0 0 0 0 0 0 0 0

Total # of neighbors = 2712
Ave neighs/atom = 56.5
Neighbor list builds = 0
Dangerous builds = 0
set atom * x 0.0 y 0.0 z 0.0
Setting atom values ...
  48 settings made for x
  48 settings made for y
  48 settings made for z
change_box all     x final 0 8.76995540567932 y final 0 6.30995403047537 z final 0 54.07444487965483      xy final 2.3868886497300186 xz final 0.0 yz final 0.0 units box
Changing box ...
  triclinic box = (0 0 0) to (8.7699554 6.309954 54.074445) with tilt (2.3868886 0 0)
  triclinic box = (0 0 0) to (8.7699554 6.309954 54.074445) with tilt (2.3868886 0 0)
  triclinic box = (0 0 0) to (8.7699554 6.309954 54.074445) with tilt (2.3868886 0 0)
  triclinic box = (0 0 0) to (8.7699554 6.309954 54.074445) with tilt (2.3868886 0 0)
  triclinic box = (0 0 0) to (8.7699554 6.309954 54.074445) with tilt (2.3868886 0 0)
  triclinic box = (0 0 0) to (8.7699554 6.309954 54.074445) with tilt (2.3868886 0 0)
echo none
run 0
WARNING: No fixes with time integration, atoms won't move (src/verlet.cpp:60)
Per MPI rank memory allocation (min/avg/max) = 8.717 | 8.717 | 8.717 Mbytes
    PotEng          Pxx           E_mol          E_coul    
-141.53326     -2934.1398      0              0            
Loop time of 1.054e-06 on 1 procs for 0 steps with 48 atoms

189.8% CPU use with 1 MPI tasks x 1 OpenMP threads

MPI task timing breakdown:
Section |  min time  |  avg time  |  max time  |%varavg| %total
---------------------------------------------------------------
Pair    | 0          | 0          | 0          |   0.0 |  0.00
Neigh   | 0          | 0          | 0          |   0.0 |  0.00
Comm    | 0          | 0          | 0          |   0.0 |  0.00
Output  | 0          | 0          | 0          |   0.0 |  0.00
Modify  | 0          | 0          | 0          |   0.0 |  0.00
Other   |            | 1.054e-06  |            |       |100.00

Nlocal:             48 ave          48 max          48 min
Histogram: 1 0 0 0 0 0 0 0 0 0
Nghost:            418 ave         418 max         418 min
Histogram: 1 0 0 0 0 0 0 0 0 0
Neighs:           1356 ave        1356 max        1356 min
Histogram: 1 0 0 0 0 0 0 0 0 0
FullNghs:         2712 ave        2712 max        2712 min
Histogram: 1 0 0 0 0 0 0 0 0 0

Total # of neighbors = 2712
Ave neighs/atom = 56.5
Neighbor list builds = 0
Dangerous builds = 0
set atom * x 0.0 y 0.0 z 0.0
Setting atom values ...
  48 settings made for x
  48 settings made for y
  48 settings made for z
change_box all     x final 0 8.76995540567932 y final 0 6.30995403047537 z final 0 54.07444487965483      xy final 2.3868886497300186 xz final 0.0 yz final 0.0 units box
Changing box ...
  triclinic box = (0 0 0) to (8.7699554 6.309954 54.074445) with tilt (2.3868886 0 0)
  triclinic box = (0 0 0) to (8.7699554 6.309954 54.074445) with tilt (2.3868886 0 0)
  triclinic box = (0 0 0) to (8.7699554 6.309954 54.074445) with tilt (2.3868886 0 0)
  triclinic box = (0 0 0) to (8.7699554 6.309954 54.074445) with tilt (2.3868886 0 0)
  triclinic box = (0 0 0) to (8.7699554 6.309954 54.074445) with tilt (2.3868886 0 0)
  triclinic box = (0 0 0) to (8.7699554 6.309954 54.074445) with tilt (2.3868886 0 0)
echo none
run 0
WARNING: No fixes with time integration, atoms won't move (src/verlet.cpp:60)
Per MPI rank memory allocation (min/avg/max) = 8.717 | 8.717 | 8.717 Mbytes
    PotEng          Pxx           E_mol          E_coul    
-141.53435     -2857.5528      0              0            
Loop time of 1.115e-06 on 1 procs for 0 steps with 48 atoms

179.4% CPU use with 1 MPI tasks x 1 OpenMP threads

MPI task timing breakdown:
Section |  min time  |  avg time  |  max time  |%varavg| %total
---------------------------------------------------------------
Pair    | 0          | 0          | 0          |   0.0 |  0.00
Neigh   | 0          | 0          | 0          |   0.0 |  0.00
Comm    | 0          | 0          | 0          |   0.0 |  0.00
Output  | 0          | 0          | 0          |   0.0 |  0.00
Modify  | 0          | 0          | 0          |   0.0 |  0.00
Other   |            | 1.115e-06  |            |       |100.00

Nlocal:             48 ave          48 max          48 min
Histogram: 1 0 0 0 0 0 0 0 0 0
Nghost:            418 ave         418 max         418 min
Histogram: 1 0 0 0 0 0 0 0 0 0
Neighs:           1356 ave        1356 max        1356 min
Histogram: 1 0 0 0 0 0 0 0 0 0
FullNghs:         2712 ave        2712 max        2712 min
Histogram: 1 0 0 0 0 0 0 0 0 0

Total # of neighbors = 2712
Ave neighs/atom = 56.5
Neighbor list builds = 0
Dangerous builds = 0
set atom * x 0.0 y 0.0 z 0.0
Setting atom values ...
  48 settings made for x
  48 settings made for y
  48 settings made for z
change_box all     x final 0 8.76995540567932 y final 0 6.30995403047537 z final 0 54.07444487965483      xy final 2.3868886497300186 xz final 0.0 yz final 0.0 units box
Changing box ...
  triclinic box = (0 0 0) to (8.7699554 6.309954 54.074445) with tilt (2.3868886 0 0)
  triclinic box = (0 0 0) to (8.7699554 6.309954 54.074445) with tilt (2.3868886 0 0)
  triclinic box = (0 0 0) to (8.7699554 6.309954 54.074445) with tilt (2.3868886 0 0)
  triclinic box = (0 0 0) to (8.7699554 6.309954 54.074445) with tilt (2.3868886 0 0)
  triclinic box = (0 0 0) to (8.7699554 6.309954 54.074445) with tilt (2.3868886 0 0)
  triclinic box = (0 0 0) to (8.7699554 6.309954 54.074445) with tilt (2.3868886 0 0)
echo none
run 0
WARNING: No fixes with time integration, atoms won't move (src/verlet.cpp:60)
Per MPI rank memory allocation (min/avg/max) = 8.717 | 8.717 | 8.717 Mbytes
    PotEng          Pxx           E_mol          E_coul    
-141.53526     -2796.4826      0              0            
Loop time of 1.771e-06 on 1 procs for 0 steps with 48 atoms

169.4% CPU use with 1 MPI tasks x 1 OpenMP threads

MPI task timing breakdown:
Section |  min time  |  avg time  |  max time  |%varavg| %total
---------------------------------------------------------------
Pair    | 0          | 0          | 0          |   0.0 |  0.00
Neigh   | 0          | 0          | 0          |   0.0 |  0.00
Comm    | 0          | 0          | 0          |   0.0 |  0.00
Output  | 0          | 0          | 0          |   0.0 |  0.00
Modify  | 0          | 0          | 0          |   0.0 |  0.00
Other   |            | 1.771e-06  |            |       |100.00

Nlocal:             48 ave          48 max          48 min
Histogram: 1 0 0 0 0 0 0 0 0 0
Nghost:            418 ave         418 max         418 min
Histogram: 1 0 0 0 0 0 0 0 0 0
Neighs:           1356 ave        1356 max        1356 min
Histogram: 1 0 0 0 0 0 0 0 0 0
FullNghs:         2712 ave        2712 max        2712 min
Histogram: 1 0 0 0 0 0 0 0 0 0

Total # of neighbors = 2712
Ave neighs/atom = 56.5
Neighbor list builds = 0
Dangerous builds = 0
set atom * x 0.0 y 0.0 z 0.0
Setting atom values ...
  48 settings made for x
  48 settings made for y
  48 settings made for z
change_box all     x final 0 8.76995540567932 y final 0 6.30995403047537 z final 0 54.07444487965483      xy final 2.3868886497300186 xz final 0.0 yz final 0.0 units box
Changing box ...
  triclinic box = (0 0 0) to (8.7699554 6.309954 54.074445) with tilt (2.3868886 0 0)
  triclinic box = (0 0 0) to (8.7699554 6.309954 54.074445) with tilt (2.3868886 0 0)
  triclinic box = (0 0 0) to (8.7699554 6.309954 54.074445) with tilt (2.3868886 0 0)
  triclinic box = (0 0 0) to (8.7699554 6.309954 54.074445) with tilt (2.3868886 0 0)
  triclinic box = (0 0 0) to (8.7699554 6.309954 54.074445) with tilt (2.3868886 0 0)
  triclinic box = (0 0 0) to (8.7699554 6.309954 54.074445) with tilt (2.3868886 0 0)
echo none
run 0
WARNING: No fixes with time integration, atoms won't move (src/verlet.cpp:60)
Per MPI rank memory allocation (min/avg/max) = 8.717 | 8.717 | 8.717 Mbytes
    PotEng          Pxx           E_mol          E_coul    
-141.53618     -2754.561       0              0            
Loop time of 1.366e-06 on 1 procs for 0 steps with 48 atoms

219.6% CPU use with 1 MPI tasks x 1 OpenMP threads

MPI task timing breakdown:
Section |  min time  |  avg time  |  max time  |%varavg| %total
---------------------------------------------------------------
Pair    | 0          | 0          | 0          |   0.0 |  0.00
Neigh   | 0          | 0          | 0          |   0.0 |  0.00
Comm    | 0          | 0          | 0          |   0.0 |  0.00
Output  | 0          | 0          | 0          |   0.0 |  0.00
Modify  | 0          | 0          | 0          |   0.0 |  0.00
Other   |            | 1.366e-06  |            |       |100.00

Nlocal:             48 ave          48 max          48 min
Histogram: 1 0 0 0 0 0 0 0 0 0
Nghost:            418 ave         418 max         418 min
Histogram: 1 0 0 0 0 0 0 0 0 0
Neighs:           1356 ave        1356 max        1356 min
Histogram: 1 0 0 0 0 0 0 0 0 0
FullNghs:         2712 ave        2712 max        2712 min
Histogram: 1 0 0 0 0 0 0 0 0 0

Total # of neighbors = 2712
Ave neighs/atom = 56.5
Neighbor list builds = 0
Dangerous builds = 0
set atom * x 0.0 y 0.0 z 0.0
Setting atom values ...
  48 settings made for x
  48 settings made for y
  48 settings made for z
change_box all     x final 0 8.76995540567932 y final 0 6.30995403047537 z final 0 54.07444487965483      xy final 2.3868886497300186 xz final 0.0 yz final 0.0 units box
Changing box ...
  triclinic box = (0 0 0) to (8.7699554 6.309954 54.074445) with tilt (2.3868886 0 0)
  triclinic box = (0 0 0) to (8.7699554 6.309954 54.074445) with tilt (2.3868886 0 0)
  triclinic box = (0 0 0) to (8.7699554 6.309954 54.074445) with tilt (2.3868886 0 0)
  triclinic box = (0 0 0) to (8.7699554 6.309954 54.074445) with tilt (2.3868886 0 0)
  triclinic box = (0 0 0) to (8.7699554 6.309954 54.074445) with tilt (2.3868886 0 0)
  triclinic box = (0 0 0) to (8.7699554 6.309954 54.074445) with tilt (2.3868886 0 0)
echo none
run 0
WARNING: No fixes with time integration, atoms won't move (src/verlet.cpp:60)
Per MPI rank memory allocation (min/avg/max) = 8.717 | 8.717 | 8.717 Mbytes
    PotEng          Pxx           E_mol          E_coul    
-141.53719     -2734.2833      0              0            
Loop time of 2.816e-06 on 1 procs for 0 steps with 48 atoms

177.6% CPU use with 1 MPI tasks x 1 OpenMP threads

MPI task timing breakdown:
Section |  min time  |  avg time  |  max time  |%varavg| %total
---------------------------------------------------------------
Pair    | 0          | 0          | 0          |   0.0 |  0.00
Neigh   | 0          | 0          | 0          |   0.0 |  0.00
Comm    | 0          | 0          | 0          |   0.0 |  0.00
Output  | 0          | 0          | 0          |   0.0 |  0.00
Modify  | 0          | 0          | 0          |   0.0 |  0.00
Other   |            | 2.816e-06  |            |       |100.00

Nlocal:             48 ave          48 max          48 min
Histogram: 1 0 0 0 0 0 0 0 0 0
Nghost:            418 ave         418 max         418 min
Histogram: 1 0 0 0 0 0 0 0 0 0
Neighs:           1356 ave        1356 max        1356 min
Histogram: 1 0 0 0 0 0 0 0 0 0
FullNghs:         2712 ave        2712 max        2712 min
Histogram: 1 0 0 0 0 0 0 0 0 0

Total # of neighbors = 2712
Ave neighs/atom = 56.5
Neighbor list builds = 0
Dangerous builds = 0
set atom * x 0.0 y 0.0 z 0.0
Setting atom values ...
  48 settings made for x
  48 settings made for y
  48 settings made for z
change_box all     x final 0 8.76995540567932 y final 0 6.30995403047537 z final 0 54.07444487965483      xy final 2.3868886497300186 xz final 0.0 yz final 0.0 units box
Changing box ...
  triclinic box = (0 0 0) to (8.7699554 6.309954 54.074445) with tilt (2.3868886 0 0)
  triclinic box = (0 0 0) to (8.7699554 6.309954 54.074445) with tilt (2.3868886 0 0)
  triclinic box = (0 0 0) to (8.7699554 6.309954 54.074445) with tilt (2.3868886 0 0)
  triclinic box = (0 0 0) to (8.7699554 6.309954 54.074445) with tilt (2.3868886 0 0)
  triclinic box = (0 0 0) to (8.7699554 6.309954 54.074445) with tilt (2.3868886 0 0)
  triclinic box = (0 0 0) to (8.7699554 6.309954 54.074445) with tilt (2.3868886 0 0)
echo none
run 0
WARNING: No fixes with time integration, atoms won't move (src/verlet.cpp:60)
Per MPI rank memory allocation (min/avg/max) = 8.717 | 8.717 | 8.717 Mbytes
    PotEng          Pxx           E_mol          E_coul    
-141.538       -2740.8761      0              0            
Loop time of 1.248e-06 on 1 procs for 0 steps with 48 atoms

160.3% CPU use with 1 MPI tasks x 1 OpenMP threads

MPI task timing breakdown:
Section |  min time  |  avg time  |  max time  |%varavg| %total
---------------------------------------------------------------
Pair    | 0          | 0          | 0          |   0.0 |  0.00
Neigh   | 0          | 0          | 0          |   0.0 |  0.00
Comm    | 0          | 0          | 0          |   0.0 |  0.00
Output  | 0          | 0          | 0          |   0.0 |  0.00
Modify  | 0          | 0          | 0          |   0.0 |  0.00
Other   |            | 1.248e-06  |            |       |100.00

Nlocal:             48 ave          48 max          48 min
Histogram: 1 0 0 0 0 0 0 0 0 0
Nghost:            418 ave         418 max         418 min
Histogram: 1 0 0 0 0 0 0 0 0 0
Neighs:           1356 ave        1356 max        1356 min
Histogram: 1 0 0 0 0 0 0 0 0 0
FullNghs:         2712 ave        2712 max        2712 min
Histogram: 1 0 0 0 0 0 0 0 0 0

Total # of neighbors = 2712
Ave neighs/atom = 56.5
Neighbor list builds = 0
Dangerous builds = 0
set atom * x 0.0 y 0.0 z 0.0
Setting atom values ...
  48 settings made for x
  48 settings made for y
  48 settings made for z
change_box all     x final 0 8.76995540567932 y final 0 6.30995403047537 z final 0 54.07444487965483      xy final 2.3868886497300186 xz final 0.0 yz final 0.0 units box
Changing box ...
  triclinic box = (0 0 0) to (8.7699554 6.309954 54.074445) with tilt (2.3868886 0 0)
  triclinic box = (0 0 0) to (8.7699554 6.309954 54.074445) with tilt (2.3868886 0 0)
  triclinic box = (0 0 0) to (8.7699554 6.309954 54.074445) with tilt (2.3868886 0 0)
  triclinic box = (0 0 0) to (8.7699554 6.309954 54.074445) with tilt (2.3868886 0 0)
  triclinic box = (0 0 0) to (8.7699554 6.309954 54.074445) with tilt (2.3868886 0 0)
  triclinic box = (0 0 0) to (8.7699554 6.309954 54.074445) with tilt (2.3868886 0 0)
echo none
run 0
WARNING: No fixes with time integration, atoms won't move (src/verlet.cpp:60)
Per MPI rank memory allocation (min/avg/max) = 8.717 | 8.717 | 8.717 Mbytes
    PotEng          Pxx           E_mol          E_coul    
-141.53848     -2759.6496      0              0            
Loop time of 1.452e-06 on 1 procs for 0 steps with 48 atoms

137.7% CPU use with 1 MPI tasks x 1 OpenMP threads

MPI task timing breakdown:
Section |  min time  |  avg time  |  max time  |%varavg| %total
---------------------------------------------------------------
Pair    | 0          | 0          | 0          |   0.0 |  0.00
Neigh   | 0          | 0          | 0          |   0.0 |  0.00
Comm    | 0          | 0          | 0          |   0.0 |  0.00
Output  | 0          | 0          | 0          |   0.0 |  0.00
Modify  | 0          | 0          | 0          |   0.0 |  0.00
Other   |            | 1.452e-06  |            |       |100.00

Nlocal:             48 ave          48 max          48 min
Histogram: 1 0 0 0 0 0 0 0 0 0
Nghost:            418 ave         418 max         418 min
Histogram: 1 0 0 0 0 0 0 0 0 0
Neighs:           1356 ave        1356 max        1356 min
Histogram: 1 0 0 0 0 0 0 0 0 0
FullNghs:         2712 ave        2712 max        2712 min
Histogram: 1 0 0 0 0 0 0 0 0 0

Total # of neighbors = 2712
Ave neighs/atom = 56.5
Neighbor list builds = 0
Dangerous builds = 0
set atom * x 0.0 y 0.0 z 0.0
Setting atom values ...
  48 settings made for x
  48 settings made for y
  48 settings made for z
change_box all     x final 0 8.76995540567932 y final 0 6.30995403047537 z final 0 54.07444487965483      xy final 2.3868886497300186 xz final 0.0 yz final 0.0 units box
Changing box ...
  triclinic box = (0 0 0) to (8.7699554 6.309954 54.074445) with tilt (2.3868886 0 0)
  triclinic box = (0 0 0) to (8.7699554 6.309954 54.074445) with tilt (2.3868886 0 0)
  triclinic box = (0 0 0) to (8.7699554 6.309954 54.074445) with tilt (2.3868886 0 0)
  triclinic box = (0 0 0) to (8.7699554 6.309954 54.074445) with tilt (2.3868886 0 0)
  triclinic box = (0 0 0) to (8.7699554 6.309954 54.074445) with tilt (2.3868886 0 0)
  triclinic box = (0 0 0) to (8.7699554 6.309954 54.074445) with tilt (2.3868886 0 0)
echo none
run 0
WARNING: No fixes with time integration, atoms won't move (src/verlet.cpp:60)
Per MPI rank memory allocation (min/avg/max) = 8.717 | 8.717 | 8.717 Mbytes
    PotEng          Pxx           E_mol          E_coul    
-141.53887     -2777.1237      0              0            
Loop time of 9.8e-07 on 1 procs for 0 steps with 48 atoms

204.1% CPU use with 1 MPI tasks x 1 OpenMP threads

MPI task timing breakdown:
Section |  min time  |  avg time  |  max time  |%varavg| %total
---------------------------------------------------------------
Pair    | 0          | 0          | 0          |   0.0 |  0.00
Neigh   | 0          | 0          | 0          |   0.0 |  0.00
Comm    | 0          | 0          | 0          |   0.0 |  0.00
Output  | 0          | 0          | 0          |   0.0 |  0.00
Modify  | 0          | 0          | 0          |   0.0 |  0.00
Other   |            | 9.8e-07    |            |       |100.00

Nlocal:             48 ave          48 max          48 min
Histogram: 1 0 0 0 0 0 0 0 0 0
Nghost:            418 ave         418 max         418 min
Histogram: 1 0 0 0 0 0 0 0 0 0
Neighs:           1356 ave        1356 max        1356 min
Histogram: 1 0 0 0 0 0 0 0 0 0
FullNghs:         2712 ave        2712 max        2712 min
Histogram: 1 0 0 0 0 0 0 0 0 0

Total # of neighbors = 2712
Ave neighs/atom = 56.5
Neighbor list builds = 0
Dangerous builds = 0
set atom * x 0.0 y 0.0 z 0.0
Setting atom values ...
  48 settings made for x
  48 settings made for y
  48 settings made for z
change_box all     x final 0 8.76995540567932 y final 0 6.30995403047537 z final 0 54.07444487965483      xy final 2.3868886497300186 xz final 0.0 yz final 0.0 units box
Changing box ...
  triclinic box = (0 0 0) to (8.7699554 6.309954 54.074445) with tilt (2.3868886 0 0)
  triclinic box = (0 0 0) to (8.7699554 6.309954 54.074445) with tilt (2.3868886 0 0)
  triclinic box = (0 0 0) to (8.7699554 6.309954 54.074445) with tilt (2.3868886 0 0)
  triclinic box = (0 0 0) to (8.7699554 6.309954 54.074445) with tilt (2.3868886 0 0)
  triclinic box = (0 0 0) to (8.7699554 6.309954 54.074445) with tilt (2.3868886 0 0)
  triclinic box = (0 0 0) to (8.7699554 6.309954 54.074445) with tilt (2.3868886 0 0)
echo none
run 0
WARNING: No fixes with time integration, atoms won't move (src/verlet.cpp:60)
Per MPI rank memory allocation (min/avg/max) = 8.717 | 8.717 | 8.717 Mbytes
    PotEng          Pxx           E_mol          E_coul    
-141.53938     -2794.232       0              0            
Loop time of 9.47e-07 on 1 procs for 0 steps with 48 atoms

211.2% CPU use with 1 MPI tasks x 1 OpenMP threads

MPI task timing breakdown:
Section |  min time  |  avg time  |  max time  |%varavg| %total
---------------------------------------------------------------
Pair    | 0          | 0          | 0          |   0.0 |  0.00
Neigh   | 0          | 0          | 0          |   0.0 |  0.00
Comm    | 0          | 0          | 0          |   0.0 |  0.00
Output  | 0          | 0          | 0          |   0.0 |  0.00
Modify  | 0          | 0          | 0          |   0.0 |  0.00
Other   |            | 9.47e-07   |            |       |100.00

Nlocal:             48 ave          48 max          48 min
Histogram: 1 0 0 0 0 0 0 0 0 0
Nghost:            418 ave         418 max         418 min
Histogram: 1 0 0 0 0 0 0 0 0 0
Neighs:           1356 ave        1356 max        1356 min
Histogram: 1 0 0 0 0 0 0 0 0 0
FullNghs:         2712 ave        2712 max        2712 min
Histogram: 1 0 0 0 0 0 0 0 0 0

Total # of neighbors = 2712
Ave neighs/atom = 56.5
Neighbor list builds = 0
Dangerous builds = 0
set atom * x 0.0 y 0.0 z 0.0
Setting atom values ...
  48 settings made for x
  48 settings made for y
  48 settings made for z
change_box all     x final 0 8.76995540567932 y final 0 6.30995403047537 z final 0 54.07444487965483      xy final 2.3868886497300186 xz final 0.0 yz final 0.0 units box
Changing box ...
  triclinic box = (0 0 0) to (8.7699554 6.309954 54.074445) with tilt (2.3868886 0 0)
  triclinic box = (0 0 0) to (8.7699554 6.309954 54.074445) with tilt (2.3868886 0 0)
  triclinic box = (0 0 0) to (8.7699554 6.309954 54.074445) with tilt (2.3868886 0 0)
  triclinic box = (0 0 0) to (8.7699554 6.309954 54.074445) with tilt (2.3868886 0 0)
  triclinic box = (0 0 0) to (8.7699554 6.309954 54.074445) with tilt (2.3868886 0 0)
  triclinic box = (0 0 0) to (8.7699554 6.309954 54.074445) with tilt (2.3868886 0 0)
echo none
run 0
WARNING: No fixes with time integration, atoms won't move (src/verlet.cpp:60)
Per MPI rank memory allocation (min/avg/max) = 8.717 | 8.717 | 8.717 Mbytes
    PotEng          Pxx           E_mol          E_coul    
-141.54006     -2809.3292      0              0            
Loop time of 9.36e-07 on 1 procs for 0 steps with 48 atoms

213.7% CPU use with 1 MPI tasks x 1 OpenMP threads

MPI task timing breakdown:
Section |  min time  |  avg time  |  max time  |%varavg| %total
---------------------------------------------------------------
Pair    | 0          | 0          | 0          |   0.0 |  0.00
Neigh   | 0          | 0          | 0          |   0.0 |  0.00
Comm    | 0          | 0          | 0          |   0.0 |  0.00
Output  | 0          | 0          | 0          |   0.0 |  0.00
Modify  | 0          | 0          | 0          |   0.0 |  0.00
Other   |            | 9.36e-07   |            |       |100.00

Nlocal:             48 ave          48 max          48 min
Histogram: 1 0 0 0 0 0 0 0 0 0
Nghost:            418 ave         418 max         418 min
Histogram: 1 0 0 0 0 0 0 0 0 0
Neighs:           1356 ave        1356 max        1356 min
Histogram: 1 0 0 0 0 0 0 0 0 0
FullNghs:         2712 ave        2712 max        2712 min
Histogram: 1 0 0 0 0 0 0 0 0 0

Total # of neighbors = 2712
Ave neighs/atom = 56.5
Neighbor list builds = 0
Dangerous builds = 0
set atom * x 0.0 y 0.0 z 0.0
Setting atom values ...
  48 settings made for x
  48 settings made for y
  48 settings made for z
change_box all     x final 0 8.76995540567932 y final 0 6.30995403047537 z final 0 54.07444487965483      xy final 2.3868886497300186 xz final 0.0 yz final 0.0 units box
Changing box ...
  triclinic box = (0 0 0) to (8.7699554 6.309954 54.074445) with tilt (2.3868886 0 0)
  triclinic box = (0 0 0) to (8.7699554 6.309954 54.074445) with tilt (2.3868886 0 0)
  triclinic box = (0 0 0) to (8.7699554 6.309954 54.074445) with tilt (2.3868886 0 0)
  triclinic box = (0 0 0) to (8.7699554 6.309954 54.074445) with tilt (2.3868886 0 0)
  triclinic box = (0 0 0) to (8.7699554 6.309954 54.074445) with tilt (2.3868886 0 0)
  triclinic box = (0 0 0) to (8.7699554 6.309954 54.074445) with tilt (2.3868886 0 0)
echo none
run 0
WARNING: No fixes with time integration, atoms won't move (src/verlet.cpp:60)
Per MPI rank memory allocation (min/avg/max) = 8.717 | 8.717 | 8.717 Mbytes
    PotEng          Pxx           E_mol          E_coul    
-141.54076     -2820.8508      0              0            
Loop time of 1.287e-06 on 1 procs for 0 steps with 48 atoms

155.4% CPU use with 1 MPI tasks x 1 OpenMP threads

MPI task timing breakdown:
Section |  min time  |  avg time  |  max time  |%varavg| %total
---------------------------------------------------------------
Pair    | 0          | 0          | 0          |   0.0 |  0.00
Neigh   | 0          | 0          | 0          |   0.0 |  0.00
Comm    | 0          | 0          | 0          |   0.0 |  0.00
Output  | 0          | 0          | 0          |   0.0 |  0.00
Modify  | 0          | 0          | 0          |   0.0 |  0.00
Other   |            | 1.287e-06  |            |       |100.00

Nlocal:             48 ave          48 max          48 min
Histogram: 1 0 0 0 0 0 0 0 0 0
Nghost:            418 ave         418 max         418 min
Histogram: 1 0 0 0 0 0 0 0 0 0
Neighs:           1356 ave        1356 max        1356 min
Histogram: 1 0 0 0 0 0 0 0 0 0
FullNghs:         2712 ave        2712 max        2712 min
Histogram: 1 0 0 0 0 0 0 0 0 0

Total # of neighbors = 2712
Ave neighs/atom = 56.5
Neighbor list builds = 0
Dangerous builds = 0
set atom * x 0.0 y 0.0 z 0.0
Setting atom values ...
  48 settings made for x
  48 settings made for y
  48 settings made for z
change_box all     x final 0 8.76995540567932 y final 0 6.30995403047537 z final 0 54.07444487965483      xy final 2.3868886497300186 xz final 0.0 yz final 0.0 units box
Changing box ...
  triclinic box = (0 0 0) to (8.7699554 6.309954 54.074445) with tilt (2.3868886 0 0)
  triclinic box = (0 0 0) to (8.7699554 6.309954 54.074445) with tilt (2.3868886 0 0)
  triclinic box = (0 0 0) to (8.7699554 6.309954 54.074445) with tilt (2.3868886 0 0)
  triclinic box = (0 0 0) to (8.7699554 6.309954 54.074445) with tilt (2.3868886 0 0)
  triclinic box = (0 0 0) to (8.7699554 6.309954 54.074445) with tilt (2.3868886 0 0)
[...]
  48 settings made for z
change_box all     x final 0 8.76995540567932 y final 0 6.30995403047537 z final 0 54.07444487965483      xy final 2.3868886497300186 xz final 0.0 yz final 0.0 units box
Changing box ...
  triclinic box = (0 0 0) to (8.7699554 6.309954 54.074445) with tilt (2.3868886 0 0)
  triclinic box = (0 0 0) to (8.7699554 6.309954 54.074445) with tilt (2.3868886 0 0)
  triclinic box = (0 0 0) to (8.7699554 6.309954 54.074445) with tilt (2.3868886 0 0)
  triclinic box = (0 0 0) to (8.7699554 6.309954 54.074445) with tilt (2.3868886 0 0)
  triclinic box = (0 0 0) to (8.7699554 6.309954 54.074445) with tilt (2.3868886 0 0)
  triclinic box = (0 0 0) to (8.7699554 6.309954 54.074445) with tilt (2.3868886 0 0)
echo none
run 0
WARNING: No fixes with time integration, atoms won't move (src/verlet.cpp:60)
Per MPI rank memory allocation (min/avg/max) = 8.717 | 8.717 | 8.717 Mbytes
    PotEng          Pxx           E_mol          E_coul    
-141.58252      40.583868      0              0            
Loop time of 9.47e-07 on 1 procs for 0 steps with 48 atoms

211.2% CPU use with 1 MPI tasks x 1 OpenMP threads

MPI task timing breakdown:
Section |  min time  |  avg time  |  max time  |%varavg| %total
---------------------------------------------------------------
Pair    | 0          | 0          | 0          |   0.0 |  0.00
Neigh   | 0          | 0          | 0          |   0.0 |  0.00
Comm    | 0          | 0          | 0          |   0.0 |  0.00
Output  | 0          | 0          | 0          |   0.0 |  0.00
Modify  | 0          | 0          | 0          |   0.0 |  0.00
Other   |            | 9.47e-07   |            |       |100.00

Nlocal:             48 ave          48 max          48 min
Histogram: 1 0 0 0 0 0 0 0 0 0
Nghost:            424 ave         424 max         424 min
Histogram: 1 0 0 0 0 0 0 0 0 0
Neighs:           1364 ave        1364 max        1364 min
Histogram: 1 0 0 0 0 0 0 0 0 0
FullNghs:         2728 ave        2728 max        2728 min
Histogram: 1 0 0 0 0 0 0 0 0 0

Total # of neighbors = 2728
Ave neighs/atom = 56.833333
Neighbor list builds = 0
Dangerous builds = 0
set atom * x 0.0 y 0.0 z 0.0
Setting atom values ...
  48 settings made for x
  48 settings made for y
  48 settings made for z
change_box all     x final 0 8.76995540567932 y final 0 6.30995403047537 z final 0 54.07444487965483      xy final 2.3868886497300186 xz final 0.0 yz final 0.0 units box
Changing box ...
  triclinic box = (0 0 0) to (8.7699554 6.309954 54.074445) with tilt (2.3868886 0 0)
  triclinic box = (0 0 0) to (8.7699554 6.309954 54.074445) with tilt (2.3868886 0 0)
  triclinic box = (0 0 0) to (8.7699554 6.309954 54.074445) with tilt (2.3868886 0 0)
  triclinic box = (0 0 0) to (8.7699554 6.309954 54.074445) with tilt (2.3868886 0 0)
  triclinic box = (0 0 0) to (8.7699554 6.309954 54.074445) with tilt (2.3868886 0 0)
  triclinic box = (0 0 0) to (8.7699554 6.309954 54.074445) with tilt (2.3868886 0 0)
echo none
run 0
WARNING: No fixes with time integration, atoms won't move (src/verlet.cpp:60)
Per MPI rank memory allocation (min/avg/max) = 8.717 | 8.717 | 8.717 Mbytes
    PotEng          Pxx           E_mol          E_coul    
-141.58262      58.956208      0              0            
Loop time of 1.506e-06 on 1 procs for 0 steps with 48 atoms

398.4% CPU use with 1 MPI tasks x 1 OpenMP threads

MPI task timing breakdown:
Section |  min time  |  avg time  |  max time  |%varavg| %total
---------------------------------------------------------------
Pair    | 0          | 0          | 0          |   0.0 |  0.00
Neigh   | 0          | 0          | 0          |   0.0 |  0.00
Comm    | 0          | 0          | 0          |   0.0 |  0.00
Output  | 0          | 0          | 0          |   0.0 |  0.00
Modify  | 0          | 0          | 0          |   0.0 |  0.00
Other   |            | 1.506e-06  |            |       |100.00

Nlocal:             48 ave          48 max          48 min
Histogram: 1 0 0 0 0 0 0 0 0 0
Nghost:            424 ave         424 max         424 min
Histogram: 1 0 0 0 0 0 0 0 0 0
Neighs:           1364 ave        1364 max        1364 min
Histogram: 1 0 0 0 0 0 0 0 0 0
FullNghs:         2728 ave        2728 max        2728 min
Histogram: 1 0 0 0 0 0 0 0 0 0

Total # of neighbors = 2728
Ave neighs/atom = 56.833333
Neighbor list builds = 0
Dangerous builds = 0
set atom * x 0.0 y 0.0 z 0.0
Setting atom values ...
  48 settings made for x
  48 settings made for y
  48 settings made for z
change_box all     x final 0 8.76995540567932 y final 0 6.30995403047537 z final 0 54.07444487965483      xy final 2.3868886497300186 xz final 0.0 yz final 0.0 units box
Changing box ...
  triclinic box = (0 0 0) to (8.7699554 6.309954 54.074445) with tilt (2.3868886 0 0)
  triclinic box = (0 0 0) to (8.7699554 6.309954 54.074445) with tilt (2.3868886 0 0)
  triclinic box = (0 0 0) to (8.7699554 6.309954 54.074445) with tilt (2.3868886 0 0)
  triclinic box = (0 0 0) to (8.7699554 6.309954 54.074445) with tilt (2.3868886 0 0)
  triclinic box = (0 0 0) to (8.7699554 6.309954 54.074445) with tilt (2.3868886 0 0)
  triclinic box = (0 0 0) to (8.7699554 6.309954 54.074445) with tilt (2.3868886 0 0)
echo none
run 0
WARNING: No fixes with time integration, atoms won't move (src/verlet.cpp:60)
Per MPI rank memory allocation (min/avg/max) = 8.717 | 8.717 | 8.717 Mbytes
    PotEng          Pxx           E_mol          E_coul    
-141.5827       67.111527      0              0            
Loop time of 1.007e-06 on 1 procs for 0 steps with 48 atoms

198.6% CPU use with 1 MPI tasks x 1 OpenMP threads

MPI task timing breakdown:
Section |  min time  |  avg time  |  max time  |%varavg| %total
---------------------------------------------------------------
Pair    | 0          | 0          | 0          |   0.0 |  0.00
Neigh   | 0          | 0          | 0          |   0.0 |  0.00
Comm    | 0          | 0          | 0          |   0.0 |  0.00
Output  | 0          | 0          | 0          |   0.0 |  0.00
Modify  | 0          | 0          | 0          |   0.0 |  0.00
Other   |            | 1.007e-06  |            |       |100.00

Nlocal:             48 ave          48 max          48 min
Histogram: 1 0 0 0 0 0 0 0 0 0
Nghost:            424 ave         424 max         424 min
Histogram: 1 0 0 0 0 0 0 0 0 0
Neighs:           1364 ave        1364 max        1364 min
Histogram: 1 0 0 0 0 0 0 0 0 0
FullNghs:         2728 ave        2728 max        2728 min
Histogram: 1 0 0 0 0 0 0 0 0 0

Total # of neighbors = 2728
Ave neighs/atom = 56.833333
Neighbor list builds = 0
Dangerous builds = 0
set atom * x 0.0 y 0.0 z 0.0
Setting atom values ...
  48 settings made for x
  48 settings made for y
  48 settings made for z
change_box all     x final 0 8.76995540567932 y final 0 6.30995403047537 z final 0 54.07444487965483      xy final 2.3868886497300186 xz final 0.0 yz final 0.0 units box
Changing box ...
  triclinic box = (0 0 0) to (8.7699554 6.309954 54.074445) with tilt (2.3868886 0 0)
  triclinic box = (0 0 0) to (8.7699554 6.309954 54.074445) with tilt (2.3868886 0 0)
  triclinic box = (0 0 0) to (8.7699554 6.309954 54.074445) with tilt (2.3868886 0 0)
  triclinic box = (0 0 0) to (8.7699554 6.309954 54.074445) with tilt (2.3868886 0 0)
  triclinic box = (0 0 0) to (8.7699554 6.309954 54.074445) with tilt (2.3868886 0 0)
  triclinic box = (0 0 0) to (8.7699554 6.309954 54.074445) with tilt (2.3868886 0 0)
echo none
run 0
WARNING: No fixes with time integration, atoms won't move (src/verlet.cpp:60)
Per MPI rank memory allocation (min/avg/max) = 8.717 | 8.717 | 8.717 Mbytes
    PotEng          Pxx           E_mol          E_coul    
-141.58282      75.425745      0              0            
Loop time of 1.559e-06 on 1 procs for 0 steps with 48 atoms

128.3% CPU use with 1 MPI tasks x 1 OpenMP threads

MPI task timing breakdown:
Section |  min time  |  avg time  |  max time  |%varavg| %total
---------------------------------------------------------------
Pair    | 0          | 0          | 0          |   0.0 |  0.00
Neigh   | 0          | 0          | 0          |   0.0 |  0.00
Comm    | 0          | 0          | 0          |   0.0 |  0.00
Output  | 0          | 0          | 0          |   0.0 |  0.00
Modify  | 0          | 0          | 0          |   0.0 |  0.00
Other   |            | 1.559e-06  |            |       |100.00

Nlocal:             48 ave          48 max          48 min
Histogram: 1 0 0 0 0 0 0 0 0 0
Nghost:            424 ave         424 max         424 min
Histogram: 1 0 0 0 0 0 0 0 0 0
Neighs:           1364 ave        1364 max        1364 min
Histogram: 1 0 0 0 0 0 0 0 0 0
FullNghs:         2728 ave        2728 max        2728 min
Histogram: 1 0 0 0 0 0 0 0 0 0

Total # of neighbors = 2728
Ave neighs/atom = 56.833333
Neighbor list builds = 0
Dangerous builds = 0
set atom * x 0.0 y 0.0 z 0.0
Setting atom values ...
  48 settings made for x
  48 settings made for y
  48 settings made for z
change_box all     x final 0 8.76995540567932 y final 0 6.30995403047537 z final 0 54.07444487965483      xy final 2.3868886497300186 xz final 0.0 yz final 0.0 units box
Changing box ...
  triclinic box = (0 0 0) to (8.7699554 6.309954 54.074445) with tilt (2.3868886 0 0)
  triclinic box = (0 0 0) to (8.7699554 6.309954 54.074445) with tilt (2.3868886 0 0)
  triclinic box = (0 0 0) to (8.7699554 6.309954 54.074445) with tilt (2.3868886 0 0)
  triclinic box = (0 0 0) to (8.7699554 6.309954 54.074445) with tilt (2.3868886 0 0)
  triclinic box = (0 0 0) to (8.7699554 6.309954 54.074445) with tilt (2.3868886 0 0)
  triclinic box = (0 0 0) to (8.7699554 6.309954 54.074445) with tilt (2.3868886 0 0)
echo none
run 0
WARNING: No fixes with time integration, atoms won't move (src/verlet.cpp:60)
Per MPI rank memory allocation (min/avg/max) = 8.717 | 8.717 | 8.717 Mbytes
    PotEng          Pxx           E_mol          E_coul    
-141.58302      86.083961      0              0            
Loop time of 1.587e-06 on 1 procs for 0 steps with 48 atoms

252.0% CPU use with 1 MPI tasks x 1 OpenMP threads

MPI task timing breakdown:
Section |  min time  |  avg time  |  max time  |%varavg| %total
---------------------------------------------------------------
Pair    | 0          | 0          | 0          |   0.0 |  0.00
Neigh   | 0          | 0          | 0          |   0.0 |  0.00
Comm    | 0          | 0          | 0          |   0.0 |  0.00
Output  | 0          | 0          | 0          |   0.0 |  0.00
Modify  | 0          | 0          | 0          |   0.0 |  0.00
Other   |            | 1.587e-06  |            |       |100.00

Nlocal:             48 ave          48 max          48 min
Histogram: 1 0 0 0 0 0 0 0 0 0
Nghost:            424 ave         424 max         424 min
Histogram: 1 0 0 0 0 0 0 0 0 0
Neighs:           1364 ave        1364 max        1364 min
Histogram: 1 0 0 0 0 0 0 0 0 0
FullNghs:         2728 ave        2728 max        2728 min
Histogram: 1 0 0 0 0 0 0 0 0 0

Total # of neighbors = 2728
Ave neighs/atom = 56.833333
Neighbor list builds = 0
Dangerous builds = 0
set atom * x 0.0 y 0.0 z 0.0
Setting atom values ...
  48 settings made for x
  48 settings made for y
  48 settings made for z
change_box all     x final 0 8.76995540567932 y final 0 6.30995403047537 z final 0 54.07444487965483      xy final 2.3868886497300186 xz final 0.0 yz final 0.0 units box
Changing box ...
  triclinic box = (0 0 0) to (8.7699554 6.309954 54.074445) with tilt (2.3868886 0 0)
  triclinic box = (0 0 0) to (8.7699554 6.309954 54.074445) with tilt (2.3868886 0 0)
  triclinic box = (0 0 0) to (8.7699554 6.309954 54.074445) with tilt (2.3868886 0 0)
  triclinic box = (0 0 0) to (8.7699554 6.309954 54.074445) with tilt (2.3868886 0 0)
  triclinic box = (0 0 0) to (8.7699554 6.309954 54.074445) with tilt (2.3868886 0 0)
  triclinic box = (0 0 0) to (8.7699554 6.309954 54.074445) with tilt (2.3868886 0 0)
echo none
run 0
WARNING: No fixes with time integration, atoms won't move (src/verlet.cpp:60)
Per MPI rank memory allocation (min/avg/max) = 8.717 | 8.717 | 8.717 Mbytes
    PotEng          Pxx           E_mol          E_coul    
-141.58326      96.115559      0              0            
Loop time of 1.965e-06 on 1 procs for 0 steps with 48 atoms

254.5% CPU use with 1 MPI tasks x 1 OpenMP threads

MPI task timing breakdown:
Section |  min time  |  avg time  |  max time  |%varavg| %total
---------------------------------------------------------------
Pair    | 0          | 0          | 0          |   0.0 |  0.00
Neigh   | 0          | 0          | 0          |   0.0 |  0.00
Comm    | 0          | 0          | 0          |   0.0 |  0.00
Output  | 0          | 0          | 0          |   0.0 |  0.00
Modify  | 0          | 0          | 0          |   0.0 |  0.00
Other   |            | 1.965e-06  |            |       |100.00

Nlocal:             48 ave          48 max          48 min
Histogram: 1 0 0 0 0 0 0 0 0 0
Nghost:            424 ave         424 max         424 min
Histogram: 1 0 0 0 0 0 0 0 0 0
Neighs:           1364 ave        1364 max        1364 min
Histogram: 1 0 0 0 0 0 0 0 0 0
FullNghs:         2728 ave        2728 max        2728 min
Histogram: 1 0 0 0 0 0 0 0 0 0

Total # of neighbors = 2728
Ave neighs/atom = 56.833333
Neighbor list builds = 0
Dangerous builds = 0
set atom * x 0.0 y 0.0 z 0.0
Setting atom values ...
  48 settings made for x
  48 settings made for y
  48 settings made for z
change_box all     x final 0 8.76995540567932 y final 0 6.30995403047537 z final 0 54.07444487965483      xy final 2.3868886497300186 xz final 0.0 yz final 0.0 units box
Changing box ...
  triclinic box = (0 0 0) to (8.7699554 6.309954 54.074445) with tilt (2.3868886 0 0)
  triclinic box = (0 0 0) to (8.7699554 6.309954 54.074445) with tilt (2.3868886 0 0)
  triclinic box = (0 0 0) to (8.7699554 6.309954 54.074445) with tilt (2.3868886 0 0)
  triclinic box = (0 0 0) to (8.7699554 6.309954 54.074445) with tilt (2.3868886 0 0)
  triclinic box = (0 0 0) to (8.7699554 6.309954 54.074445) with tilt (2.3868886 0 0)
  triclinic box = (0 0 0) to (8.7699554 6.309954 54.074445) with tilt (2.3868886 0 0)
echo none
run 0
WARNING: No fixes with time integration, atoms won't move (src/verlet.cpp:60)
Per MPI rank memory allocation (min/avg/max) = 8.717 | 8.717 | 8.717 Mbytes
    PotEng          Pxx           E_mol          E_coul    
-141.58342      97.535782      0              0            
Loop time of 1.14e-06 on 1 procs for 0 steps with 48 atoms

263.2% CPU use with 1 MPI tasks x 1 OpenMP threads

MPI task timing breakdown:
Section |  min time  |  avg time  |  max time  |%varavg| %total
---------------------------------------------------------------
Pair    | 0          | 0          | 0          |   0.0 |  0.00
Neigh   | 0          | 0          | 0          |   0.0 |  0.00
Comm    | 0          | 0          | 0          |   0.0 |  0.00
Output  | 0          | 0          | 0          |   0.0 |  0.00
Modify  | 0          | 0          | 0          |   0.0 |  0.00
Other   |            | 1.14e-06   |            |       |100.00

Nlocal:             48 ave          48 max          48 min
Histogram: 1 0 0 0 0 0 0 0 0 0
Nghost:            424 ave         424 max         424 min
Histogram: 1 0 0 0 0 0 0 0 0 0
Neighs:           1364 ave        1364 max        1364 min
Histogram: 1 0 0 0 0 0 0 0 0 0
FullNghs:         2728 ave        2728 max        2728 min
Histogram: 1 0 0 0 0 0 0 0 0 0

Total # of neighbors = 2728
Ave neighs/atom = 56.833333
Neighbor list builds = 0
Dangerous builds = 0
set atom * x 0.0 y 0.0 z 0.0
Setting atom values ...
  48 settings made for x
  48 settings made for y
  48 settings made for z
change_box all     x final 0 8.76995540567932 y final 0 6.30995403047537 z final 0 54.07444487965483      xy final 2.3868886497300186 xz final 0.0 yz final 0.0 units box
Changing box ...
  triclinic box = (0 0 0) to (8.7699554 6.309954 54.074445) with tilt (2.3868886 0 0)
  triclinic box = (0 0 0) to (8.7699554 6.309954 54.074445) with tilt (2.3868886 0 0)
  triclinic box = (0 0 0) to (8.7699554 6.309954 54.074445) with tilt (2.3868886 0 0)
  triclinic box = (0 0 0) to (8.7699554 6.309954 54.074445) with tilt (2.3868886 0 0)
  triclinic box = (0 0 0) to (8.7699554 6.309954 54.074445) with tilt (2.3868886 0 0)
  triclinic box = (0 0 0) to (8.7699554 6.309954 54.074445) with tilt (2.3868886 0 0)
echo none
run 0
WARNING: No fixes with time integration, atoms won't move (src/verlet.cpp:60)
Per MPI rank memory allocation (min/avg/max) = 8.717 | 8.717 | 8.717 Mbytes
    PotEng          Pxx           E_mol          E_coul    
-141.58347      92.688534      0              0            
Loop time of 1.58e-06 on 1 procs for 0 steps with 48 atoms

189.9% CPU use with 1 MPI tasks x 1 OpenMP threads

MPI task timing breakdown:
Section |  min time  |  avg time  |  max time  |%varavg| %total
---------------------------------------------------------------
Pair    | 0          | 0          | 0          |   0.0 |  0.00
Neigh   | 0          | 0          | 0          |   0.0 |  0.00
Comm    | 0          | 0          | 0          |   0.0 |  0.00
Output  | 0          | 0          | 0          |   0.0 |  0.00
Modify  | 0          | 0          | 0          |   0.0 |  0.00
Other   |            | 1.58e-06   |            |       |100.00

Nlocal:             48 ave          48 max          48 min
Histogram: 1 0 0 0 0 0 0 0 0 0
Nghost:            424 ave         424 max         424 min
Histogram: 1 0 0 0 0 0 0 0 0 0
Neighs:           1364 ave        1364 max        1364 min
Histogram: 1 0 0 0 0 0 0 0 0 0
FullNghs:         2728 ave        2728 max        2728 min
Histogram: 1 0 0 0 0 0 0 0 0 0

Total # of neighbors = 2728
Ave neighs/atom = 56.833333
Neighbor list builds = 0
Dangerous builds = 0
set atom * x 0.0 y 0.0 z 0.0
Setting atom values ...
  48 settings made for x
  48 settings made for y
  48 settings made for z
change_box all     x final 0 8.76995540567932 y final 0 6.30995403047537 z final 0 54.07444487965483      xy final 2.3868886497300186 xz final 0.0 yz final 0.0 units box
Changing box ...
  triclinic box = (0 0 0) to (8.7699554 6.309954 54.074445) with tilt (2.3868886 0 0)
  triclinic box = (0 0 0) to (8.7699554 6.309954 54.074445) with tilt (2.3868886 0 0)
  triclinic box = (0 0 0) to (8.7699554 6.309954 54.074445) with tilt (2.3868886 0 0)
  triclinic box = (0 0 0) to (8.7699554 6.309954 54.074445) with tilt (2.3868886 0 0)
  triclinic box = (0 0 0) to (8.7699554 6.309954 54.074445) with tilt (2.3868886 0 0)
  triclinic box = (0 0 0) to (8.7699554 6.309954 54.074445) with tilt (2.3868886 0 0)
echo none
run 0
WARNING: No fixes with time integration, atoms won't move (src/verlet.cpp:60)
Per MPI rank memory allocation (min/avg/max) = 8.717 | 8.717 | 8.717 Mbytes
    PotEng          Pxx           E_mol          E_coul    
-141.5835       86.448325      0              0            
Loop time of 1.301e-06 on 1 procs for 0 steps with 48 atoms

153.7% CPU use with 1 MPI tasks x 1 OpenMP threads

MPI task timing breakdown:
Section |  min time  |  avg time  |  max time  |%varavg| %total
---------------------------------------------------------------
Pair    | 0          | 0          | 0          |   0.0 |  0.00
Neigh   | 0          | 0          | 0          |   0.0 |  0.00
Comm    | 0          | 0          | 0          |   0.0 |  0.00
Output  | 0          | 0          | 0          |   0.0 |  0.00
Modify  | 0          | 0          | 0          |   0.0 |  0.00
Other   |            | 1.301e-06  |            |       |100.00

Nlocal:             48 ave          48 max          48 min
Histogram: 1 0 0 0 0 0 0 0 0 0
Nghost:            424 ave         424 max         424 min
Histogram: 1 0 0 0 0 0 0 0 0 0
Neighs:           1364 ave        1364 max        1364 min
Histogram: 1 0 0 0 0 0 0 0 0 0
FullNghs:         2728 ave        2728 max        2728 min
Histogram: 1 0 0 0 0 0 0 0 0 0

Total # of neighbors = 2728
Ave neighs/atom = 56.833333
Neighbor list builds = 0
Dangerous builds = 0
Total wall time: 0:00:00
