LAMMPS (29 Aug 2024)
OMP_NUM_THREADS environment is not set. Defaulting to 1 thread. (src/comm.cpp:98)
  using 1 OpenMP thread(s) per MPI task
units metal
atom_style atomic
atom_modify map array sort 0 0
boundary p p p
box tilt large

The 'box' command has been removed and will be ignored

region cell prism    0 6.7417648799254986 0 6.560242775378095 0 60.074956206985924     1.5539010342671078 0.0 0.0     units box
create_box 1 cell
Created triclinic box = (0 0 0) to (6.7417649 6.5602428 60.074956) with tilt (1.553901 0 0)
  1 by 1 by 1 MPI processor grid
echo none
Created 48 atoms
  using lattice units in triclinic box = (0 0 0) to (6.7417649 6.5602428 60.074956) with tilt (1.553901 0 0)
  create_atoms CPU = 0.000 seconds
Setting atom values ...
  1 settings made for type
Setting atom values ...
  1 settings made for type
Setting atom values ...
  1 settings made for type
Setting atom values ...
  1 settings made for type
Setting atom values ...
  1 settings made for type
Setting atom values ...
  1 settings made for type
Setting atom values ...
  1 settings made for type
Setting atom values ...
  1 settings made for type
Setting atom values ...
  1 settings made for type
Setting atom values ...
  1 settings made for type
Setting atom values ...
  1 settings made for type
Setting atom values ...
  1 settings made for type
Setting atom values ...
  1 settings made for type
Setting atom values ...
  1 settings made for type
Setting atom values ...
  1 settings made for type
Setting atom values ...
  1 settings made for type
Setting atom values ...
  1 settings made for type
Setting atom values ...
  1 settings made for type
Setting atom values ...
  1 settings made for type
Setting atom values ...
  1 settings made for type
Setting atom values ...
  1 settings made for type
Setting atom values ...
  1 settings made for type
Setting atom values ...
  1 settings made for type
Setting atom values ...
  1 settings made for type
Setting atom values ...
  1 settings made for type
Setting atom values ...
  1 settings made for type
Setting atom values ...
  1 settings made for type
Setting atom values ...
  1 settings made for type
Setting atom values ...
  1 settings made for type
Setting atom values ...
  1 settings made for type
Setting atom values ...
  1 settings made for type
Setting atom values ...
  1 settings made for type
Setting atom values ...
  1 settings made for type
Setting atom values ...
  1 settings made for type
Setting atom values ...
  1 settings made for type
Setting atom values ...
  1 settings made for type
Setting atom values ...
  1 settings made for type
Setting atom values ...
  1 settings made for type
Setting atom values ...
  1 settings made for type
Setting atom values ...
  1 settings made for type
Setting atom values ...
  1 settings made for type
Setting atom values ...
  1 settings made for type
Setting atom values ...
  1 settings made for type
Setting atom values ...
  1 settings made for type
Setting atom values ...
  1 settings made for type
Setting atom values ...
  1 settings made for type
Setting atom values ...
  1 settings made for type
Setting atom values ...
  1 settings made for type
pair_style meam
pair_coeff * * <HOME>/projects/beta-sn-elasticity/surface_gb/meam_potentials/library.Sn.Etesami2018.meam Sn <HOME>/projects/beta-sn-elasticity/surface_gb/meam_potentials/Sn.Etesami2018.meam Sn
compute pe_peratom all pe/atom
mass 1 118.709999969462515423401782754809
variable pxx equal pxx
variable pyy equal pyy
variable pzz equal pzz
variable pxy equal pxy
variable pxz equal pxz
variable pyz equal pyz
thermo_style custom pe pxx emol ecoul
variable fx atom fx
variable fy atom fy
variable fz atom fz
variable pe equal pe
neigh_modify delay 0 every 1 check yes
echo none
run 0
WARNING: No fixes with time integration, atoms won't move (src/verlet.cpp:60)
Neighbor list info ...
  update: every = 1 steps, delay = 0 steps, check = yes
  max neighbors/atom: 2000, page size: 100000
  master list distance cutoff = 7.5
  ghost atom cutoff = 7.5
  binsize = 3.75, bins = 3 2 17
  2 neighbor lists, perpetual/occasional/extra = 2 0 0
  (1) pair meam, perpetual
      attributes: full, newton on
      pair build: full/bin/atomonly
      stencil: full/bin/3d
      bin: standard
  (2) pair meam, perpetual, half/full from (1)
      attributes: half, newton on
      pair build: halffull/newton/tri
      stencil: none
      bin: none
Per MPI rank memory allocation (min/avg/max) = 8.623 | 8.623 | 8.623 Mbytes
    PotEng          Pxx           E_mol          E_coul    
-138.20316      13480.076      0              0            
Loop time of 1.006e-06 on 1 procs for 0 steps with 48 atoms

198.8% CPU use with 1 MPI tasks x 1 OpenMP threads

MPI task timing breakdown:
Section |  min time  |  avg time  |  max time  |%varavg| %total
---------------------------------------------------------------
Pair    | 0          | 0          | 0          |   0.0 |  0.00
Neigh   | 0          | 0          | 0          |   0.0 |  0.00
Comm    | 0          | 0          | 0          |   0.0 |  0.00
Output  | 0          | 0          | 0          |   0.0 |  0.00
Modify  | 0          | 0          | 0          |   0.0 |  0.00
Other   |            | 1.006e-06  |            |       |100.00

Nlocal:             48 ave          48 max          48 min
Histogram: 1 0 0 0 0 0 0 0 0 0
Nghost:            485 ave         485 max         485 min
Histogram: 1 0 0 0 0 0 0 0 0 0
Neighs:           1396 ave        1396 max        1396 min
Histogram: 1 0 0 0 0 0 0 0 0 0
FullNghs:         2792 ave        2792 max        2792 min
Histogram: 1 0 0 0 0 0 0 0 0 0

Total # of neighbors = 2792
Ave neighs/atom = 58.166667
Neighbor list builds = 0
Dangerous builds = 0
set atom * x 0.0 y 0.0 z 0.0
Setting atom values ...
  48 settings made for x
  48 settings made for y
  48 settings made for z
change_box all     x final 0 6.7417648799254986 y final 0 6.560242775378095 z final 0 60.074956206985924      xy final 1.5539010342671078 xz final 0.0 yz final 0.0 units box
Changing box ...
  triclinic box = (0 0 0) to (6.7417649 6.5602428 60.074956) with tilt (1.553901 0 0)
  triclinic box = (0 0 0) to (6.7417649 6.5602428 60.074956) with tilt (1.553901 0 0)
  triclinic box = (0 0 0) to (6.7417649 6.5602428 60.074956) with tilt (1.553901 0 0)
  triclinic box = (0 0 0) to (6.7417649 6.5602428 60.074956) with tilt (1.553901 0 0)
  triclinic box = (0 0 0) to (6.7417649 6.5602428 60.074956) with tilt (1.553901 0 0)
  triclinic box = (0 0 0) to (6.7417649 6.5602428 60.074956) with tilt (1.553901 0 0)
echo none
run 0
WARNING: No fixes with time integration, atoms won't move (src/verlet.cpp:60)
Per MPI rank memory allocation (min/avg/max) = 8.748 | 8.748 | 8.748 Mbytes
    PotEng          Pxx           E_mol          E_coul    
-138.71781      11796.742      0              0            
Loop time of 9.29e-07 on 1 procs for 0 steps with 48 atoms

215.3% CPU use with 1 MPI tasks x 1 OpenMP threads

MPI task timing breakdown:
Section |  min time  |  avg time  |  max time  |%varavg| %total
---------------------------------------------------------------
Pair    | 0          | 0          | 0          |   0.0 |  0.00
Neigh   | 0          | 0          | 0          |   0.0 |  0.00
Comm    | 0          | 0          | 0          |   0.0 |  0.00
Output  | 0          | 0          | 0          |   0.0 |  0.00
Modify  | 0          | 0          | 0          |   0.0 |  0.00
Other   |            | 9.29e-07   |            |       |100.00

Nlocal:             48 ave          48 max          48 min
Histogram: 1 0 0 0 0 0 0 0 0 0
Nghost:            485 ave         485 max         485 min
Histogram: 1 0 0 0 0 0 0 0 0 0
Neighs:           1396 ave        1396 max        1396 min
Histogram: 1 0 0 0 0 0 0 0 0 0
FullNghs:         2792 ave        2792 max        2792 min
Histogram: 1 0 0 0 0 0 0 0 0 0

Total # of neighbors = 2792
Ave neighs/atom = 58.166667
Neighbor list builds = 0
Dangerous builds = 0
set atom * x 0.0 y 0.0 z 0.0
Setting atom values ...
  48 settings made for x
  48 settings made for y
  48 settings made for z
change_box all     x final 0 6.7417648799254986 y final 0 6.560242775378095 z final 0 60.074956206985924      xy final 1.5539010342671078 xz final 0.0 yz final 0.0 units box
Changing box ...
  triclinic box = (0 0 0) to (6.7417649 6.5602428 60.074956) with tilt (1.553901 0 0)
  triclinic box = (0 0 0) to (6.7417649 6.5602428 60.074956) with tilt (1.553901 0 0)
  triclinic box = (0 0 0) to (6.7417649 6.5602428 60.074956) with tilt (1.553901 0 0)
  triclinic box = (0 0 0) to (6.7417649 6.5602428 60.074956) with tilt (1.553901 0 0)
  triclinic box = (0 0 0) to (6.7417649 6.5602428 60.074956) with tilt (1.553901 0 0)
  triclinic box = (0 0 0) to (6.7417649 6.5602428 60.074956) with tilt (1.553901 0 0)
echo none
run 0
WARNING: No fixes with time integration, atoms won't move (src/verlet.cpp:60)
Per MPI rank memory allocation (min/avg/max) = 8.748 | 8.748 | 8.748 Mbytes
    PotEng          Pxx           E_mol          E_coul    
-139.45435      8160.6849      0              0            
Loop time of 1.347e-06 on 1 procs for 0 steps with 48 atoms

148.5% CPU use with 1 MPI tasks x 1 OpenMP threads

MPI task timing breakdown:
Section |  min time  |  avg time  |  max time  |%varavg| %total
---------------------------------------------------------------
Pair    | 0          | 0          | 0          |   0.0 |  0.00
Neigh   | 0          | 0          | 0          |   0.0 |  0.00
Comm    | 0          | 0          | 0          |   0.0 |  0.00
Output  | 0          | 0          | 0          |   0.0 |  0.00
Modify  | 0          | 0          | 0          |   0.0 |  0.00
Other   |            | 1.347e-06  |            |       |100.00

Nlocal:             48 ave          48 max          48 min
Histogram: 1 0 0 0 0 0 0 0 0 0
Nghost:            485 ave         485 max         485 min
Histogram: 1 0 0 0 0 0 0 0 0 0
Neighs:           1396 ave        1396 max        1396 min
Histogram: 1 0 0 0 0 0 0 0 0 0
FullNghs:         2792 ave        2792 max        2792 min
Histogram: 1 0 0 0 0 0 0 0 0 0

Total # of neighbors = 2792
Ave neighs/atom = 58.166667
Neighbor list builds = 0
Dangerous builds = 0
set atom * x 0.0 y 0.0 z 0.0
Setting atom values ...
  48 settings made for x
  48 settings made for y
  48 settings made for z
change_box all     x final 0 6.7417648799254986 y final 0 6.560242775378095 z final 0 60.074956206985924      xy final 1.5539010342671078 xz final 0.0 yz final 0.0 units box
Changing box ...
  triclinic box = (0 0 0) to (6.7417649 6.5602428 60.074956) with tilt (1.553901 0 0)
  triclinic box = (0 0 0) to (6.7417649 6.5602428 60.074956) with tilt (1.553901 0 0)
  triclinic box = (0 0 0) to (6.7417649 6.5602428 60.074956) with tilt (1.553901 0 0)
  triclinic box = (0 0 0) to (6.7417649 6.5602428 60.074956) with tilt (1.553901 0 0)
  triclinic box = (0 0 0) to (6.7417649 6.5602428 60.074956) with tilt (1.553901 0 0)
  triclinic box = (0 0 0) to (6.7417649 6.5602428 60.074956) with tilt (1.553901 0 0)
echo none
run 0
WARNING: No fixes with time integration, atoms won't move (src/verlet.cpp:60)
Per MPI rank memory allocation (min/avg/max) = 8.748 | 8.748 | 8.748 Mbytes
    PotEng          Pxx           E_mol          E_coul    
-139.65716      7094.175       0              0            
Loop time of 9.87e-07 on 1 procs for 0 steps with 48 atoms

202.6% CPU use with 1 MPI tasks x 1 OpenMP threads

MPI task timing breakdown:
Section |  min time  |  avg time  |  max time  |%varavg| %total
---------------------------------------------------------------
Pair    | 0          | 0          | 0          |   0.0 |  0.00
Neigh   | 0          | 0          | 0          |   0.0 |  0.00
Comm    | 0          | 0          | 0          |   0.0 |  0.00
Output  | 0          | 0          | 0          |   0.0 |  0.00
Modify  | 0          | 0          | 0          |   0.0 |  0.00
Other   |            | 9.87e-07   |            |       |100.00

Nlocal:             48 ave          48 max          48 min
Histogram: 1 0 0 0 0 0 0 0 0 0
Nghost:            485 ave         485 max         485 min
Histogram: 1 0 0 0 0 0 0 0 0 0
Neighs:           1396 ave        1396 max        1396 min
Histogram: 1 0 0 0 0 0 0 0 0 0
FullNghs:         2792 ave        2792 max        2792 min
Histogram: 1 0 0 0 0 0 0 0 0 0

Total # of neighbors = 2792
Ave neighs/atom = 58.166667
Neighbor list builds = 0
Dangerous builds = 0
set atom * x 0.0 y 0.0 z 0.0
Setting atom values ...
  48 settings made for x
  48 settings made for y
  48 settings made for z
change_box all     x final 0 6.7417648799254986 y final 0 6.560242775378095 z final 0 60.074956206985924      xy final 1.5539010342671078 xz final 0.0 yz final 0.0 units box
Changing box ...
  triclinic box = (0 0 0) to (6.7417649 6.5602428 60.074956) with tilt (1.553901 0 0)
  triclinic box = (0 0 0) to (6.7417649 6.5602428 60.074956) with tilt (1.553901 0 0)
  triclinic box = (0 0 0) to (6.7417649 6.5602428 60.074956) with tilt (1.553901 0 0)
  triclinic box = (0 0 0) to (6.7417649 6.5602428 60.074956) with tilt (1.553901 0 0)
  triclinic box = (0 0 0) to (6.7417649 6.5602428 60.074956) with tilt (1.553901 0 0)
  triclinic box = (0 0 0) to (6.7417649 6.5602428 60.074956) with tilt (1.553901 0 0)
echo none
run 0
WARNING: No fixes with time integration, atoms won't move (src/verlet.cpp:60)
Per MPI rank memory allocation (min/avg/max) = 8.748 | 8.748 | 8.748 Mbytes
    PotEng          Pxx           E_mol          E_coul    
-139.96272      5441.3116      0              0            
Loop time of 9.71e-07 on 1 procs for 0 steps with 48 atoms

206.0% CPU use with 1 MPI tasks x 1 OpenMP threads

MPI task timing breakdown:
Section |  min time  |  avg time  |  max time  |%varavg| %total
---------------------------------------------------------------
Pair    | 0          | 0          | 0          |   0.0 |  0.00
Neigh   | 0          | 0          | 0          |   0.0 |  0.00
Comm    | 0          | 0          | 0          |   0.0 |  0.00
Output  | 0          | 0          | 0          |   0.0 |  0.00
Modify  | 0          | 0          | 0          |   0.0 |  0.00
Other   |            | 9.71e-07   |            |       |100.00

Nlocal:             48 ave          48 max          48 min
Histogram: 1 0 0 0 0 0 0 0 0 0
Nghost:            485 ave         485 max         485 min
Histogram: 1 0 0 0 0 0 0 0 0 0
Neighs:           1396 ave        1396 max        1396 min
Histogram: 1 0 0 0 0 0 0 0 0 0
FullNghs:         2792 ave        2792 max        2792 min
Histogram: 1 0 0 0 0 0 0 0 0 0

Total # of neighbors = 2792
Ave neighs/atom = 58.166667
Neighbor list builds = 0
Dangerous builds = 0
set atom * x 0.0 y 0.0 z 0.0
Setting atom values ...
  48 settings made for x
  48 settings made for y
  48 settings made for z
change_box all     x final 0 6.7417648799254986 y final 0 6.560242775378095 z final 0 60.074956206985924      xy final 1.5539010342671078 xz final 0.0 yz final 0.0 units box
Changing box ...
  triclinic box = (0 0 0) to (6.7417649 6.5602428 60.074956) with tilt (1.553901 0 0)
  triclinic box = (0 0 0) to (6.7417649 6.5602428 60.074956) with tilt (1.553901 0 0)
  triclinic box = (0 0 0) to (6.7417649 6.5602428 60.074956) with tilt (1.553901 0 0)
  triclinic box = (0 0 0) to (6.7417649 6.5602428 60.074956) with tilt (1.553901 0 0)
  triclinic box = (0 0 0) to (6.7417649 6.5602428 60.074956) with tilt (1.553901 0 0)
  triclinic box = (0 0 0) to (6.7417649 6.5602428 60.074956) with tilt (1.553901 0 0)
echo none
run 0
WARNING: No fixes with time integration, atoms won't move (src/verlet.cpp:60)
Per MPI rank memory allocation (min/avg/max) = 8.748 | 8.748 | 8.748 Mbytes
    PotEng          Pxx           E_mol          E_coul    
-140.06459      4730.9533      0              0            
Loop time of 8.73e-07 on 1 procs for 0 steps with 48 atoms

229.1% CPU use with 1 MPI tasks x 1 OpenMP threads

MPI task timing breakdown:
Section |  min time  |  avg time  |  max time  |%varavg| %total
---------------------------------------------------------------
Pair    | 0          | 0          | 0          |   0.0 |  0.00
Neigh   | 0          | 0          | 0          |   0.0 |  0.00
Comm    | 0          | 0          | 0          |   0.0 |  0.00
Output  | 0          | 0          | 0          |   0.0 |  0.00
Modify  | 0          | 0          | 0          |   0.0 |  0.00
Other   |            | 8.73e-07   |            |       |100.00

Nlocal:             48 ave          48 max          48 min
Histogram: 1 0 0 0 0 0 0 0 0 0
Nghost:            485 ave         485 max         485 min
Histogram: 1 0 0 0 0 0 0 0 0 0
Neighs:           1396 ave        1396 max        1396 min
Histogram: 1 0 0 0 0 0 0 0 0 0
FullNghs:         2792 ave        2792 max        2792 min
Histogram: 1 0 0 0 0 0 0 0 0 0

Total # of neighbors = 2792
Ave neighs/atom = 58.166667
Neighbor list builds = 0
Dangerous builds = 0
set atom * x 0.0 y 0.0 z 0.0
Setting atom values ...
  48 settings made for x
  48 settings made for y
  48 settings made for z
change_box all     x final 0 6.7417648799254986 y final 0 6.560242775378095 z final 0 60.074956206985924      xy final 1.5539010342671078 xz final 0.0 yz final 0.0 units box
Changing box ...
  triclinic box = (0 0 0) to (6.7417649 6.5602428 60.074956) with tilt (1.553901 0 0)
  triclinic box = (0 0 0) to (6.7417649 6.5602428 60.074956) with tilt (1.553901 0 0)
  triclinic box = (0 0 0) to (6.7417649 6.5602428 60.074956) with tilt (1.553901 0 0)
  triclinic box = (0 0 0) to (6.7417649 6.5602428 60.074956) with tilt (1.553901 0 0)
  triclinic box = (0 0 0) to (6.7417649 6.5602428 60.074956) with tilt (1.553901 0 0)
  triclinic box = (0 0 0) to (6.7417649 6.5602428 60.074956) with tilt (1.553901 0 0)
echo none
run 0
WARNING: No fixes with time integration, atoms won't move (src/verlet.cpp:60)
Per MPI rank memory allocation (min/avg/max) = 8.748 | 8.748 | 8.748 Mbytes
    PotEng          Pxx           E_mol          E_coul    
-140.14064      4063.1835      0              0            
Loop time of 9.58e-07 on 1 procs for 0 steps with 48 atoms

208.8% CPU use with 1 MPI tasks x 1 OpenMP threads

MPI task timing breakdown:
Section |  min time  |  avg time  |  max time  |%varavg| %total
---------------------------------------------------------------
Pair    | 0          | 0          | 0          |   0.0 |  0.00
Neigh   | 0          | 0          | 0          |   0.0 |  0.00
Comm    | 0          | 0          | 0          |   0.0 |  0.00
Output  | 0          | 0          | 0          |   0.0 |  0.00
Modify  | 0          | 0          | 0          |   0.0 |  0.00
Other   |            | 9.58e-07   |            |       |100.00

Nlocal:             48 ave          48 max          48 min
Histogram: 1 0 0 0 0 0 0 0 0 0
Nghost:            485 ave         485 max         485 min
Histogram: 1 0 0 0 0 0 0 0 0 0
Neighs:           1396 ave        1396 max        1396 min
Histogram: 1 0 0 0 0 0 0 0 0 0
FullNghs:         2792 ave        2792 max        2792 min
Histogram: 1 0 0 0 0 0 0 0 0 0

Total # of neighbors = 2792
Ave neighs/atom = 58.166667
Neighbor list builds = 0
Dangerous builds = 0
set atom * x 0.0 y 0.0 z 0.0
Setting atom values ...
  48 settings made for x
  48 settings made for y
  48 settings made for z
change_box all     x final 0 6.7417648799254986 y final 0 6.560242775378095 z final 0 60.074956206985924      xy final 1.5539010342671078 xz final 0.0 yz final 0.0 units box
Changing box ...
  triclinic box = (0 0 0) to (6.7417649 6.5602428 60.074956) with tilt (1.553901 0 0)
  triclinic box = (0 0 0) to (6.7417649 6.5602428 60.074956) with tilt (1.553901 0 0)
  triclinic box = (0 0 0) to (6.7417649 6.5602428 60.074956) with tilt (1.553901 0 0)
  triclinic box = (0 0 0) to (6.7417649 6.5602428 60.074956) with tilt (1.553901 0 0)
  triclinic box = (0 0 0) to (6.7417649 6.5602428 60.074956) with tilt (1.553901 0 0)
  triclinic box = (0 0 0) to (6.7417649 6.5602428 60.074956) with tilt (1.553901 0 0)
echo none
run 0
WARNING: No fixes with time integration, atoms won't move (src/verlet.cpp:60)
Per MPI rank memory allocation (min/avg/max) = 8.748 | 8.748 | 8.748 Mbytes
    PotEng          Pxx           E_mol          E_coul    
-140.19935      3471.3978      0              0            
Loop time of 1.033e-06 on 1 procs for 0 steps with 48 atoms

193.6% CPU use with 1 MPI tasks x 1 OpenMP threads

MPI task timing breakdown:
Section |  min time  |  avg time  |  max time  |%varavg| %total
---------------------------------------------------------------
Pair    | 0          | 0          | 0          |   0.0 |  0.00
Neigh   | 0          | 0          | 0          |   0.0 |  0.00
Comm    | 0          | 0          | 0          |   0.0 |  0.00
Output  | 0          | 0          | 0          |   0.0 |  0.00
Modify  | 0          | 0          | 0          |   0.0 |  0.00
Other   |            | 1.033e-06  |            |       |100.00

Nlocal:             48 ave          48 max          48 min
Histogram: 1 0 0 0 0 0 0 0 0 0
Nghost:            485 ave         485 max         485 min
Histogram: 1 0 0 0 0 0 0 0 0 0
Neighs:           1396 ave        1396 max        1396 min
Histogram: 1 0 0 0 0 0 0 0 0 0
FullNghs:         2792 ave        2792 max        2792 min
Histogram: 1 0 0 0 0 0 0 0 0 0

Total # of neighbors = 2792
Ave neighs/atom = 58.166667
Neighbor list builds = 0
Dangerous builds = 0
set atom * x 0.0 y 0.0 z 0.0
Setting atom values ...
  48 settings made for x
  48 settings made for y
  48 settings made for z
change_box all     x final 0 6.7417648799254986 y final 0 6.560242775378095 z final 0 60.074956206985924      xy final 1.5539010342671078 xz final 0.0 yz final 0.0 units box
Changing box ...
  triclinic box = (0 0 0) to (6.7417649 6.5602428 60.074956) with tilt (1.553901 0 0)
  triclinic box = (0 0 0) to (6.7417649 6.5602428 60.074956) with tilt (1.553901 0 0)
  triclinic box = (0 0 0) to (6.7417649 6.5602428 60.074956) with tilt (1.553901 0 0)
  triclinic box = (0 0 0) to (6.7417649 6.5602428 60.074956) with tilt (1.553901 0 0)
  triclinic box = (0 0 0) to (6.7417649 6.5602428 60.074956) with tilt (1.553901 0 0)
  triclinic box = (0 0 0) to (6.7417649 6.5602428 60.074956) with tilt (1.553901 0 0)
echo none
run 0
WARNING: No fixes with time integration, atoms won't move (src/verlet.cpp:60)
Per MPI rank memory allocation (min/avg/max) = 8.748 | 8.748 | 8.748 Mbytes
    PotEng          Pxx           E_mol          E_coul    
-140.25939      2835.612       0              0            
Loop time of 8.7e-07 on 1 procs for 0 steps with 48 atoms

229.9% CPU use with 1 MPI tasks x 1 OpenMP threads

MPI task timing breakdown:
Section |  min time  |  avg time  |  max time  |%varavg| %total
---------------------------------------------------------------
Pair    | 0          | 0          | 0          |   0.0 |  0.00
Neigh   | 0          | 0          | 0          |   0.0 |  0.00
Comm    | 0          | 0          | 0          |   0.0 |  0.00
Output  | 0          | 0          | 0          |   0.0 |  0.00
Modify  | 0          | 0          | 0          |   0.0 |  0.00
Other   |            | 8.7e-07    |            |       |100.00

Nlocal:             48 ave          48 max          48 min
Histogram: 1 0 0 0 0 0 0 0 0 0
Nghost:            485 ave         485 max         485 min
Histogram: 1 0 0 0 0 0 0 0 0 0
Neighs:           1398 ave        1398 max        1398 min
Histogram: 1 0 0 0 0 0 0 0 0 0
FullNghs:         2796 ave        2796 max        2796 min
Histogram: 1 0 0 0 0 0 0 0 0 0

Total # of neighbors = 2796
Ave neighs/atom = 58.25
Neighbor list builds = 0
Dangerous builds = 0
set atom * x 0.0 y 0.0 z 0.0
Setting atom values ...
  48 settings made for x
  48 settings made for y
  48 settings made for z
change_box all     x final 0 6.7417648799254986 y final 0 6.560242775378095 z final 0 60.074956206985924      xy final 1.5539010342671078 xz final 0.0 yz final 0.0 units box
Changing box ...
  triclinic box = (0 0 0) to (6.7417649 6.5602428 60.074956) with tilt (1.553901 0 0)
  triclinic box = (0 0 0) to (6.7417649 6.5602428 60.074956) with tilt (1.553901 0 0)
  triclinic box = (0 0 0) to (6.7417649 6.5602428 60.074956) with tilt (1.553901 0 0)
  triclinic box = (0 0 0) to (6.7417649 6.5602428 60.074956) with tilt (1.553901 0 0)
  triclinic box = (0 0 0) to (6.7417649 6.5602428 60.074956) with tilt (1.553901 0 0)
  triclinic box = (0 0 0) to (6.7417649 6.5602428 60.074956) with tilt (1.553901 0 0)
echo none
run 0
WARNING: No fixes with time integration, atoms won't move (src/verlet.cpp:60)
Per MPI rank memory allocation (min/avg/max) = 8.748 | 8.748 | 8.748 Mbytes
    PotEng          Pxx           E_mol          E_coul    
-140.31411      2240.1096      0              0            
Loop time of 1.158e-06 on 1 procs for 0 steps with 48 atoms

172.7% CPU use with 1 MPI tasks x 1 OpenMP threads

MPI task timing breakdown:
Section |  min time  |  avg time  |  max time  |%varavg| %total
---------------------------------------------------------------
Pair    | 0          | 0          | 0          |   0.0 |  0.00
Neigh   | 0          | 0          | 0          |   0.0 |  0.00
Comm    | 0          | 0          | 0          |   0.0 |  0.00
Output  | 0          | 0          | 0          |   0.0 |  0.00
Modify  | 0          | 0          | 0          |   0.0 |  0.00
Other   |            | 1.158e-06  |            |       |100.00

Nlocal:             48 ave          48 max          48 min
Histogram: 1 0 0 0 0 0 0 0 0 0
Nghost:            485 ave         485 max         485 min
Histogram: 1 0 0 0 0 0 0 0 0 0
Neighs:           1398 ave        1398 max        1398 min
Histogram: 1 0 0 0 0 0 0 0 0 0
FullNghs:         2796 ave        2796 max        2796 min
Histogram: 1 0 0 0 0 0 0 0 0 0

Total # of neighbors = 2796
Ave neighs/atom = 58.25
Neighbor list builds = 0
Dangerous builds = 0
set atom * x 0.0 y 0.0 z 0.0
Setting atom values ...
  48 settings made for x
  48 settings made for y
  48 settings made for z
change_box all     x final 0 6.7417648799254986 y final 0 6.560242775378095 z final 0 60.074956206985924      xy final 1.5539010342671078 xz final 0.0 yz final 0.0 units box
Changing box ...
  triclinic box = (0 0 0) to (6.7417649 6.5602428 60.074956) with tilt (1.553901 0 0)
  triclinic box = (0 0 0) to (6.7417649 6.5602428 60.074956) with tilt (1.553901 0 0)
  triclinic box = (0 0 0) to (6.7417649 6.5602428 60.074956) with tilt (1.553901 0 0)
  triclinic box = (0 0 0) to (6.7417649 6.5602428 60.074956) with tilt (1.553901 0 0)
  triclinic box = (0 0 0) to (6.7417649 6.5602428 60.074956) with tilt (1.553901 0 0)
  triclinic box = (0 0 0) to (6.7417649 6.5602428 60.074956) with tilt (1.553901 0 0)
echo none
run 0
WARNING: No fixes with time integration, atoms won't move (src/verlet.cpp:60)
Per MPI rank memory allocation (min/avg/max) = 8.748 | 8.748 | 8.748 Mbytes
    PotEng          Pxx           E_mol          E_coul    
-140.35647      1752.255       0              0            
Loop time of 9.78e-07 on 1 procs for 0 steps with 48 atoms

204.5% CPU use with 1 MPI tasks x 1 OpenMP threads

MPI task timing breakdown:
Section |  min time  |  avg time  |  max time  |%varavg| %total
---------------------------------------------------------------
Pair    | 0          | 0          | 0          |   0.0 |  0.00
Neigh   | 0          | 0          | 0          |   0.0 |  0.00
Comm    | 0          | 0          | 0          |   0.0 |  0.00
Output  | 0          | 0          | 0          |   0.0 |  0.00
Modify  | 0          | 0          | 0          |   0.0 |  0.00
Other   |            | 9.78e-07   |            |       |100.00

Nlocal:             48 ave          48 max          48 min
Histogram: 1 0 0 0 0 0 0 0 0 0
Nghost:            485 ave         485 max         485 min
Histogram: 1 0 0 0 0 0 0 0 0 0
Neighs:           1396 ave        1396 max        1396 min
Histogram: 1 0 0 0 0 0 0 0 0 0
FullNghs:         2792 ave        2792 max        2792 min
Histogram: 1 0 0 0 0 0 0 0 0 0

Total # of neighbors = 2792
Ave neighs/atom = 58.166667
Neighbor list builds = 0
Dangerous builds = 0
set atom * x 0.0 y 0.0 z 0.0
Setting atom values ...
  48 settings made for x
  48 settings made for y
  48 settings made for z
change_box all     x final 0 6.7417648799254986 y final 0 6.560242775378095 z final 0 60.074956206985924      xy final 1.5539010342671078 xz final 0.0 yz final 0.0 units box
Changing box ...
  triclinic box = (0 0 0) to (6.7417649 6.5602428 60.074956) with tilt (1.553901 0 0)
  triclinic box = (0 0 0) to (6.7417649 6.5602428 60.074956) with tilt (1.553901 0 0)
  triclinic box = (0 0 0) to (6.7417649 6.5602428 60.074956) with tilt (1.553901 0 0)
  triclinic box = (0 0 0) to (6.7417649 6.5602428 60.074956) with tilt (1.553901 0 0)
  triclinic box = (0 0 0) to (6.7417649 6.5602428 60.074956) with tilt (1.553901 0 0)
  triclinic box = (0 0 0) to (6.7417649 6.5602428 60.074956) with tilt (1.553901 0 0)
echo none
run 0
WARNING: No fixes with time integration, atoms won't move (src/verlet.cpp:60)
Per MPI rank memory allocation (min/avg/max) = 8.748 | 8.748 | 8.748 Mbytes
    PotEng          Pxx           E_mol          E_coul    
-140.38751      1365.2476      0              0            
Loop time of 9.55e-07 on 1 procs for 0 steps with 48 atoms

209.4% CPU use with 1 MPI tasks x 1 OpenMP threads

MPI task timing breakdown:
Section |  min time  |  avg time  |  max time  |%varavg| %total
---------------------------------------------------------------
Pair    | 0          | 0          | 0          |   0.0 |  0.00
Neigh   | 0          | 0          | 0          |   0.0 |  0.00
Comm    | 0          | 0          | 0          |   0.0 |  0.00
Output  | 0          | 0          | 0          |   0.0 |  0.00
Modify  | 0          | 0          | 0          |   0.0 |  0.00
Other   |            | 9.55e-07   |            |       |100.00

Nlocal:             48 ave          48 max          48 min
Histogram: 1 0 0 0 0 0 0 0 0 0
Nghost:            482 ave         482 max         482 min
Histogram: 1 0 0 0 0 0 0 0 0 0
Neighs:           1396 ave        1396 max        1396 min
Histogram: 1 0 0 0 0 0 0 0 0 0
FullNghs:         2792 ave        2792 max        2792 min
Histogram: 1 0 0 0 0 0 0 0 0 0

Total # of neighbors = 2792
Ave neighs/atom = 58.166667
Neighbor list builds = 0
Dangerous builds = 0
set atom * x 0.0 y 0.0 z 0.0
Setting atom values ...
  48 settings made for x
  48 settings made for y
  48 settings made for z
change_box all     x final 0 6.7417648799254986 y final 0 6.560242775378095 z final 0 60.074956206985924      xy final 1.5539010342671078 xz final 0.0 yz final 0.0 units box
Changing box ...
  triclinic box = (0 0 0) to (6.7417649 6.5602428 60.074956) with tilt (1.553901 0 0)
  triclinic box = (0 0 0) to (6.7417649 6.5602428 60.074956) with tilt (1.553901 0 0)
  triclinic box = (0 0 0) to (6.7417649 6.5602428 60.074956) with tilt (1.553901 0 0)
  triclinic box = (0 0 0) to (6.7417649 6.5602428 60.074956) with tilt (1.553901 0 0)
  triclinic box = (0 0 0) to (6.7417649 6.5602428 60.074956) with tilt (1.553901 0 0)
  triclinic box = (0 0 0) to (6.7417649 6.5602428 60.074956) with tilt (1.553901 0 0)
echo none
run 0
WARNING: No fixes with time integration, atoms won't move (src/verlet.cpp:60)
Per MPI rank memory allocation (min/avg/max) = 8.748 | 8.748 | 8.748 Mbytes
    PotEng          Pxx           E_mol          E_coul    
-140.41189      1033.3125      0              0            
Loop time of 8.98e-07 on 1 procs for 0 steps with 48 atoms

222.7% CPU use with 1 MPI tasks x 1 OpenMP threads

MPI task timing breakdown:
Section |  min time  |  avg time  |  max time  |%varavg| %total
---------------------------------------------------------------
Pair    | 0          | 0          | 0          |   0.0 |  0.00
Neigh   | 0          | 0          | 0          |   0.0 |  0.00
Comm    | 0          | 0          | 0          |   0.0 |  0.00
Output  | 0          | 0          | 0          |   0.0 |  0.00
Modify  | 0          | 0          | 0          |   0.0 |  0.00
Other   |            | 8.98e-07   |            |       |100.00

Nlocal:             48 ave          48 max          48 min
Histogram: 1 0 0 0 0 0 0 0 0 0
Nghost:            482 ave         482 max         482 min
Histogram: 1 0 0 0 0 0 0 0 0 0
Neighs:           1396 ave        1396 max        1396 min
Histogram: 1 0 0 0 0 0 0 0 0 0
FullNghs:         2792 ave        2792 max        2792 min
Histogram: 1 0 0 0 0 0 0 0 0 0

Total # of neighbors = 2792
Ave neighs/atom = 58.166667
Neighbor list builds = 0
Dangerous builds = 0
set atom * x 0.0 y 0.0 z 0.0
Setting atom values ...
  48 settings made for x
  48 settings made for y
  48 settings made for z
change_box all     x final 0 6.7417648799254986 y final 0 6.560242775378095 z final 0 60.074956206985924      xy final 1.5539010342671078 xz final 0.0 yz final 0.0 units box
Changing box ...
  triclinic box = (0 0 0) to (6.7417649 6.5602428 60.074956) with tilt (1.553901 0 0)
  triclinic box = (0 0 0) to (6.7417649 6.5602428 60.074956) with tilt (1.553901 0 0)
  triclinic box = (0 0 0) to (6.7417649 6.5602428 60.074956) with tilt (1.553901 0 0)
  triclinic box = (0 0 0) to (6.7417649 6.5602428 60.074956) with tilt (1.553901 0 0)
  triclinic box = (0 0 0) to (6.7417649 6.5602428 60.074956) with tilt (1.553901 0 0)
  triclinic box = (0 0 0) to (6.7417649 6.5602428 60.074956) with tilt (1.553901 0 0)
echo none
run 0
WARNING: No fixes with time integration, atoms won't move (src/verlet.cpp:60)
Per MPI rank memory allocation (min/avg/max) = 8.748 | 8.748 | 8.748 Mbytes
    PotEng          Pxx           E_mol          E_coul    
-140.4295       772.994        0              0            
Loop time of 9.42e-07 on 1 procs for 0 steps with 48 atoms

212.3% CPU use with 1 MPI tasks x 1 OpenMP threads

MPI task timing breakdown:
Section |  min time  |  avg time  |  max time  |%varavg| %total
---------------------------------------------------------------
Pair    | 0          | 0          | 0          |   0.0 |  0.00
Neigh   | 0          | 0          | 0          |   0.0 |  0.00
Comm    | 0          | 0          | 0          |   0.0 |  0.00
Output  | 0          | 0          | 0          |   0.0 |  0.00
Modify  | 0          | 0          | 0          |   0.0 |  0.00
Other   |            | 9.42e-07   |            |       |100.00

Nlocal:             48 ave          48 max          48 min
Histogram: 1 0 0 0 0 0 0 0 0 0
Nghost:            482 ave         482 max         482 min
Histogram: 1 0 0 0 0 0 0 0 0 0
Neighs:           1396 ave        1396 max        1396 min
Histogram: 1 0 0 0 0 0 0 0 0 0
FullNghs:         2792 ave        2792 max        2792 min
Histogram: 1 0 0 0 0 0 0 0 0 0

Total # of neighbors = 2792
Ave neighs/atom = 58.166667
Neighbor list builds = 0
Dangerous builds = 0
set atom * x 0.0 y 0.0 z 0.0
Setting atom values ...
  48 settings made for x
  48 settings made for y
  48 settings made for z
change_box all     x final 0 6.7417648799254986 y final 0 6.560242775378095 z final 0 60.074956206985924      xy final 1.5539010342671078 xz final 0.0 yz final 0.0 units box
Changing box ...
  triclinic box = (0 0 0) to (6.7417649 6.5602428 60.074956) with tilt (1.553901 0 0)
  triclinic box = (0 0 0) to (6.7417649 6.5602428 60.074956) with tilt (1.553901 0 0)
  triclinic box = (0 0 0) to (6.7417649 6.5602428 60.074956) with tilt (1.553901 0 0)
  triclinic box = (0 0 0) to (6.7417649 6.5602428 60.074956) with tilt (1.553901 0 0)
  triclinic box = (0 0 0) to (6.7417649 6.5602428 60.074956) with tilt (1.553901 0 0)
  triclinic box = (0 0 0) to (6.7417649 6.5602428 60.074956) with tilt (1.553901 0 0)
echo none
run 0
WARNING: No fixes with time integration, atoms won't move (src/verlet.cpp:60)
Per MPI rank memory allocation (min/avg/max) = 8.748 | 8.748 | 8.748 Mbytes
    PotEng          Pxx           E_mol          E_coul    
-140.44175      585.08324      0              0            
Loop time of 8.75e-07 on 1 procs for 0 steps with 48 atoms

228.6% CPU use with 1 MPI tasks x 1 OpenMP threads

MPI task timing breakdown:
Section |  min time  |  avg time  |  max time  |%varavg| %total
---------------------------------------------------------------
Pair    | 0          | 0          | 0          |   0.0 |  0.00
Neigh   | 0          | 0          | 0          |   0.0 |  0.00
Comm    | 0          | 0          | 0          |   0.0 |  0.00
Output  | 0          | 0          | 0          |   0.0 |  0.00
Modify  | 0          | 0          | 0          |   0.0 |  0.00
Other   |            | 8.75e-07   |            |       |100.00

Nlocal:             48 ave          48 max          48 min
Histogram: 1 0 0 0 0 0 0 0 0 0
Nghost:            482 ave         482 max         482 min
Histogram: 1 0 0 0 0 0 0 0 0 0
Neighs:           1396 ave        1396 max        1396 min
Histogram: 1 0 0 0 0 0 0 0 0 0
FullNghs:         2792 ave        2792 max        2792 min
Histogram: 1 0 0 0 0 0 0 0 0 0

Total # of neighbors = 2792
Ave neighs/atom = 58.166667
Neighbor list builds = 0
Dangerous builds = 0
set atom * x 0.0 y 0.0 z 0.0
Setting atom values ...
  48 settings made for x
  48 settings made for y
  48 settings made for z
change_box all     x final 0 6.7417648799254986 y final 0 6.560242775378095 z final 0 60.074956206985924      xy final 1.5539010342671078 xz final 0.0 yz final 0.0 units box
Changing box ...
  triclinic box = (0 0 0) to (6.7417649 6.5602428 60.074956) with tilt (1.553901 0 0)
  triclinic box = (0 0 0) to (6.7417649 6.5602428 60.074956) with tilt (1.553901 0 0)
  triclinic box = (0 0 0) to (6.7417649 6.5602428 60.074956) with tilt (1.553901 0 0)
  triclinic box = (0 0 0) to (6.7417649 6.5602428 60.074956) with tilt (1.553901 0 0)
  triclinic box = (0 0 0) to (6.7417649 6.5602428 60.074956) with tilt (1.553901 0 0)
  triclinic box = (0 0 0) to (6.7417649 6.5602428 60.074956) with tilt (1.553901 0 0)
echo none
run 0
WARNING: No fixes with time integration, atoms won't move (src/verlet.cpp:60)
Per MPI rank memory allocation (min/avg/max) = 8.748 | 8.748 | 8.748 Mbytes
    PotEng          Pxx           E_mol          E_coul    
-140.45062      459.22961      0              0            
Loop time of 1.321e-06 on 1 procs for 0 steps with 48 atoms

151.4% CPU use with 1 MPI tasks x 1 OpenMP threads

MPI task timing breakdown:
Section |  min time  |  avg time  |  max time  |%varavg| %total
---------------------------------------------------------------
Pair    | 0          | 0          | 0          |   0.0 |  0.00
Neigh   | 0          | 0          | 0          |   0.0 |  0.00
Comm    | 0          | 0          | 0          |   0.0 |  0.00
Output  | 0          | 0          | 0          |   0.0 |  0.00
Modify  | 0          | 0          | 0          |   0.0 |  0.00
Other   |            | 1.321e-06  |            |       |100.00

Nlocal:             48 ave          48 max          48 min
Histogram: 1 0 0 0 0 0 0 0 0 0
Nghost:            482 ave         482 max         482 min
Histogram: 1 0 0 0 0 0 0 0 0 0
Neighs:           1396 ave        1396 max        1396 min
Histogram: 1 0 0 0 0 0 0 0 0 0
FullNghs:         2792 ave        2792 max        2792 min
Histogram: 1 0 0 0 0 0 0 0 0 0

Total # of neighbors = 2792
Ave neighs/atom = 58.166667
Neighbor list builds = 0
Dangerous builds = 0
set atom * x 0.0 y 0.0 z 0.0
Setting atom values ...
  48 settings made for x
  48 settings made for y
  48 settings made for z
change_box all     x final 0 6.7417648799254986 y final 0 6.560242775378095 z final 0 60.074956206985924      xy final 1.5539010342671078 xz final 0.0 yz final 0.0 units box
Changing box ...
  triclinic box = (0 0 0) to (6.7417649 6.5602428 60.074956) with tilt (1.553901 0 0)
  triclinic box = (0 0 0) to (6.7417649 6.5602428 60.074956) with tilt (1.553901 0 0)
  triclinic box = (0 0 0) to (6.7417649 6.5602428 60.074956) with tilt (1.553901 0 0)
  triclinic box = (0 0 0) to (6.7417649 6.5602428 60.074956) with tilt (1.553901 0 0)
  triclinic box = (0 0 0) to (6.7417649 6.5602428 60.074956) with tilt (1.553901 0 0)
  triclinic box = (0 0 0) to (6.7417649 6.5602428 60.074956) with tilt (1.553901 0 0)
echo none
run 0
WARNING: No fixes with time integration, atoms won't move (src/verlet.cpp:60)
Per MPI rank memory allocation (min/avg/max) = 8.748 | 8.748 | 8.748 Mbytes
    PotEng          Pxx           E_mol          E_coul    
-140.45867      364.92027      0              0            
Loop time of 9.81e-07 on 1 procs for 0 steps with 48 atoms

305.8% CPU use with 1 MPI tasks x 1 OpenMP threads

MPI task timing breakdown:
Section |  min time  |  avg time  |  max time  |%varavg| %total
---------------------------------------------------------------
Pair    | 0          | 0          | 0          |   0.0 |  0.00
Neigh   | 0          | 0          | 0          |   0.0 |  0.00
Comm    | 0          | 0          | 0          |   0.0 |  0.00
Output  | 0          | 0          | 0          |   0.0 |  0.00
Modify  | 0          | 0          | 0          |   0.0 |  0.00
Other   |            | 9.81e-07   |            |       |100.00

Nlocal:             48 ave          48 max          48 min
Histogram: 1 0 0 0 0 0 0 0 0 0
Nghost:            482 ave         482 max         482 min
Histogram: 1 0 0 0 0 0 0 0 0 0
Neighs:           1396 ave        1396 max        1396 min
Histogram: 1 0 0 0 0 0 0 0 0 0
FullNghs:         2792 ave        2792 max        2792 min
Histogram: 1 0 0 0 0 0 0 0 0 0

Total # of neighbors = 2792
Ave neighs/atom = 58.166667
Neighbor list builds = 0
Dangerous builds = 0
set atom * x 0.0 y 0.0 z 0.0
Setting atom values ...
  48 settings made for x
  48 settings made for y
  48 settings made for z
change_box all     x final 0 6.7417648799254986 y final 0 6.560242775378095 z final 0 60.074956206985924      xy final 1.5539010342671078 xz final 0.0 yz final 0.0 units box
Changing box ...
  triclinic box = (0 0 0) to (6.7417649 6.5602428 60.074956) with tilt (1.553901 0 0)
  triclinic box = (0 0 0) to (6.7417649 6.5602428 60.074956) with tilt (1.553901 0 0)
  triclinic box = (0 0 0) to (6.7417649 6.5602428 60.074956) with tilt (1.553901 0 0)
  triclinic box = (0 0 0) to (6.7417649 6.5602428 60.074956) with tilt (1.553901 0 0)
  triclinic box = (0 0 0) to (6.7417649 6.5602428 60.074956) with tilt (1.553901 0 0)
  triclinic box = (0 0 0) to (6.7417649 6.5602428 60.074956) with tilt (1.553901 0 0)
echo none
run 0
WARNING: No fixes with time integration, atoms won't move (src/verlet.cpp:60)
Per MPI rank memory allocation (min/avg/max) = 8.748 | 8.748 | 8.748 Mbytes
    PotEng          Pxx           E_mol          E_coul    
-140.4681       276.45503      0              0            
Loop time of 1.526e-06 on 1 procs for 0 steps with 48 atoms

196.6% CPU use with 1 MPI tasks x 1 OpenMP threads

MPI task timing breakdown:
Section |  min time  |  avg time  |  max time  |%varavg| %total
---------------------------------------------------------------
Pair    | 0          | 0          | 0          |   0.0 |  0.00
Neigh   | 0          | 0          | 0          |   0.0 |  0.00
Comm    | 0          | 0          | 0          |   0.0 |  0.00
Output  | 0          | 0          | 0          |   0.0 |  0.00
Modify  | 0          | 0          | 0          |   0.0 |  0.00
Other   |            | 1.526e-06  |            |       |100.00

Nlocal:             48 ave          48 max          48 min
Histogram: 1 0 0 0 0 0 0 0 0 0
Nghost:            482 ave         482 max         482 min
Histogram: 1 0 0 0 0 0 0 0 0 0
Neighs:           1396 ave        1396 max        1396 min
Histogram: 1 0 0 0 0 0 0 0 0 0
FullNghs:         2792 ave        2792 max        2792 min
Histogram: 1 0 0 0 0 0 0 0 0 0

Total # of neighbors = 2792
Ave neighs/atom = 58.166667
Neighbor list builds = 0
Dangerous builds = 0
set atom * x 0.0 y 0.0 z 0.0
Setting atom values ...
  48 settings made for x
  48 settings made for y
  48 settings made for z
change_box all     x final 0 6.7417648799254986 y final 0 6.560242775378095 z final 0 60.074956206985924      xy final 1.5539010342671078 xz final 0.0 yz final 0.0 units box
Changing box ...
  triclinic box = (0 0 0) to (6.7417649 6.5602428 60.074956) with tilt (1.553901 0 0)
  triclinic box = (0 0 0) to (6.7417649 6.5602428 60.074956) with tilt (1.553901 0 0)
  triclinic box = (0 0 0) to (6.7417649 6.5602428 60.074956) with tilt (1.553901 0 0)
  triclinic box = (0 0 0) to (6.7417649 6.5602428 60.074956) with tilt (1.553901 0 0)
  triclinic box = (0 0 0) to (6.7417649 6.5602428 60.074956) with tilt (1.553901 0 0)
  triclinic box = (0 0 0) to (6.7417649 6.5602428 60.074956) with tilt (1.553901 0 0)
echo none
run 0
WARNING: No fixes with time integration, atoms won't move (src/verlet.cpp:60)
Per MPI rank memory allocation (min/avg/max) = 8.748 | 8.748 | 8.748 Mbytes
    PotEng          Pxx           E_mol          E_coul    
-140.47962      189.45281      0              0            
Loop time of 1.841e-06 on 1 procs for 0 steps with 48 atoms

217.3% CPU use with 1 MPI tasks x 1 OpenMP threads

MPI task timing breakdown:
Section |  min time  |  avg time  |  max time  |%varavg| %total
---------------------------------------------------------------
Pair    | 0          | 0          | 0          |   0.0 |  0.00
Neigh   | 0          | 0          | 0          |   0.0 |  0.00
Comm    | 0          | 0          | 0          |   0.0 |  0.00
Output  | 0          | 0          | 0          |   0.0 |  0.00
Modify  | 0          | 0          | 0          |   0.0 |  0.00
Other   |            | 1.841e-06  |            |       |100.00

Nlocal:             48 ave          48 max          48 min
Histogram: 1 0 0 0 0 0 0 0 0 0
Nghost:            482 ave         482 max         482 min
Histogram: 1 0 0 0 0 0 0 0 0 0
Neighs:           1396 ave        1396 max        1396 min
Histogram: 1 0 0 0 0 0 0 0 0 0
FullNghs:         2792 ave        2792 max        2792 min
Histogram: 1 0 0 0 0 0 0 0 0 0

Total # of neighbors = 2792
Ave neighs/atom = 58.166667
Neighbor list builds = 0
Dangerous builds = 0
set atom * x 0.0 y 0.0 z 0.0
Setting atom values ...
  48 settings made for x
  48 settings made for y
  48 settings made for z
change_box all     x final 0 6.7417648799254986 y final 0 6.560242775378095 z final 0 60.074956206985924      xy final 1.5539010342671078 xz final 0.0 yz final 0.0 units box
Changing box ...
  triclinic box = (0 0 0) to (6.7417649 6.5602428 60.074956) with tilt (1.553901 0 0)
  triclinic box = (0 0 0) to (6.7417649 6.5602428 60.074956) with tilt (1.553901 0 0)
  triclinic box = (0 0 0) to (6.7417649 6.5602428 60.074956) with tilt (1.553901 0 0)
  triclinic box = (0 0 0) to (6.7417649 6.5602428 60.074956) with tilt (1.553901 0 0)
  triclinic box = (0 0 0) to (6.7417649 6.5602428 60.074956) with tilt (1.553901 0 0)
  triclinic box = (0 0 0) to (6.7417649 6.5602428 60.074956) with tilt (1.553901 0 0)
echo none
run 0
WARNING: No fixes with time integration, atoms won't move (src/verlet.cpp:60)
Per MPI rank memory allocation (min/avg/max) = 8.748 | 8.748 | 8.748 Mbytes
    PotEng          Pxx           E_mol          E_coul    
-140.49318      101.14109      0              0            
Loop time of 1.874e-06 on 1 procs for 0 steps with 48 atoms

160.1% CPU use with 1 MPI tasks x 1 OpenMP threads

MPI task timing breakdown:
Section |  min time  |  avg time  |  max time  |%varavg| %total
---------------------------------------------------------------
Pair    | 0          | 0          | 0          |   0.0 |  0.00
Neigh   | 0          | 0          | 0          |   0.0 |  0.00
Comm    | 0          | 0          | 0          |   0.0 |  0.00
Output  | 0          | 0          | 0          |   0.0 |  0.00
Modify  | 0          | 0          | 0          |   0.0 |  0.00
Other   |            | 1.874e-06  |            |       |100.00

Nlocal:             48 ave          48 max          48 min
Histogram: 1 0 0 0 0 0 0 0 0 0
Nghost:            485 ave         485 max         485 min
Histogram: 1 0 0 0 0 0 0 0 0 0
Neighs:           1394 ave        1394 max        1394 min
Histogram: 1 0 0 0 0 0 0 0 0 0
FullNghs:         2788 ave        2788 max        2788 min
Histogram: 1 0 0 0 0 0 0 0 0 0

Total # of neighbors = 2788
Ave neighs/atom = 58.083333
Neighbor list builds = 0
Dangerous builds = 0
set atom * x 0.0 y 0.0 z 0.0
Setting atom values ...
  48 settings made for x
  48 settings made for y
  48 settings made for z
change_box all     x final 0 6.7417648799254986 y final 0 6.560242775378095 z final 0 60.074956206985924      xy final 1.5539010342671078 xz final 0.0 yz final 0.0 units box
Changing box ...
  triclinic box = (0 0 0) to (6.7417649 6.5602428 60.074956) with tilt (1.553901 0 0)
  triclinic box = (0 0 0) to (6.7417649 6.5602428 60.074956) with tilt (1.553901 0 0)
  triclinic box = (0 0 0) to (6.7417649 6.5602428 60.074956) with tilt (1.553901 0 0)
  triclinic box = (0 0 0) to (6.7417649 6.5602428 60.074956) with tilt (1.553901 0 0)
  triclinic box = (0 0 0) to (6.7417649 6.5602428 60.074956) with tilt (1.553901 0 0)
  triclinic box = (0 0 0) to (6.7417649 6.5602428 60.074956) with tilt (1.553901 0 0)
echo none
run 0
WARNING: No fixes with time integration, atoms won't move (src/verlet.cpp:60)
Per MPI rank memory allocation (min/avg/max) = 8.748 | 8.748 | 8.748 Mbytes
    PotEng          Pxx           E_mol          E_coul    
-140.5089      -1.4902841      0              0            
Loop time of 1.381e-06 on 1 procs for 0 steps with 48 atoms

144.8% CPU use with 1 MPI tasks x 1 OpenMP threads

MPI task timing breakdown:
Section |  min time  |  avg time  |  max time  |%varavg| %total
---------------------------------------------------------------
Pair    | 0          | 0          | 0          |   0.0 |  0.00
Neigh   | 0          | 0          | 0          |   0.0 |  0.00
Comm    | 0          | 0          | 0          |   0.0 |  0.00
Output  | 0          | 0          | 0          |   0.0 |  0.00
Modify  | 0          | 0          | 0          |   0.0 |  0.00
Other   |            | 1.381e-06  |            |       |100.00

Nlocal:             48 ave          48 max          48 min
Histogram: 1 0 0 0 0 0 0 0 0 0
Nghost:            488 ave         488 max         488 min
Histogram: 1 0 0 0 0 0 0 0 0 0
Neighs:           1394 ave        1394 max        1394 min
Histogram: 1 0 0 0 0 0 0 0 0 0
FullNghs:         2788 ave        2788 max        2788 min
Histogram: 1 0 0 0 0 0 0 0 0 0

Total # of neighbors = 2788
Ave neighs/atom = 58.083333
Neighbor list builds = 0
Dangerous builds = 0
set atom * x 0.0 y 0.0 z 0.0
Setting atom values ...
  48 settings made for x
  48 settings made for y
  48 settings made for z
change_box all     x final 0 6.7417648799254986 y final 0 6.560242775378095 z final 0 60.074956206985924      xy final 1.5539010342671078 xz final 0.0 yz final 0.0 units box
Changing box ...
  triclinic box = (0 0 0) to (6.7417649 6.5602428 60.074956) with tilt (1.553901 0 0)
  triclinic box = (0 0 0) to (6.7417649 6.5602428 60.074956) with tilt (1.553901 0 0)
  triclinic box = (0 0 0) to (6.7417649 6.5602428 60.074956) with tilt (1.553901 0 0)
  triclinic box = (0 0 0) to (6.7417649 6.5602428 60.074956) with tilt (1.553901 0 0)
  triclinic box = (0 0 0) to (6.7417649 6.5602428 60.074956) with tilt (1.553901 0 0)
  triclinic box = (0 0 0) to (6.7417649 6.5602428 60.074956) with tilt (1.553901 0 0)
echo none
run 0
WARNING: No fixes with time integration, atoms won't move (src/verlet.cpp:60)
Per MPI rank memory allocation (min/avg/max) = 8.748 | 8.748 | 8.748 Mbytes
    PotEng          Pxx           E_mol          E_coul    
-140.52682     -136.35094      0              0            
Loop time of 1.571e-06 on 1 procs for 0 steps with 48 atoms

191.0% CPU use with 1 MPI tasks x 1 OpenMP threads

MPI task timing breakdown:
Section |  min time  |  avg time  |  max time  |%varavg| %total
---------------------------------------------------------------
Pair    | 0          | 0          | 0          |   0.0 |  0.00
Neigh   | 0          | 0          | 0          |   0.0 |  0.00
Comm    | 0          | 0          | 0          |   0.0 |  0.00
Output  | 0          | 0          | 0          |   0.0 |  0.00
Modify  | 0          | 0          | 0          |   0.0 |  0.00
Other   |            | 1.571e-06  |            |       |100.00

Nlocal:             48 ave          48 max          48 min
Histogram: 1 0 0 0 0 0 0 0 0 0
Nghost:            485 ave         485 max         485 min
Histogram: 1 0 0 0 0 0 0 0 0 0
Neighs:           1394 ave        1394 max        1394 min
Histogram: 1 0 0 0 0 0 0 0 0 0
FullNghs:         2788 ave        2788 max        2788 min
Histogram: 1 0 0 0 0 0 0 0 0 0

Total # of neighbors = 2788
Ave neighs/atom = 58.083333
Neighbor list builds = 0
Dangerous builds = 0
set atom * x 0.0 y 0.0 z 0.0
Setting atom values ...
  48 settings made for x
  48 settings made for y
  48 settings made for z
change_box all     x final 0 6.7417648799254986 y final 0 6.560242775378095 z final 0 60.074956206985924      xy final 1.5539010342671078 xz final 0.0 yz final 0.0 units box
Changing box ...
  triclinic box = (0 0 0) to (6.7417649 6.5602428 60.074956) with tilt (1.553901 0 0)
  triclinic box = (0 0 0) to (6.7417649 6.5602428 60.074956) with tilt (1.553901 0 0)
  triclinic box = (0 0 0) to (6.7417649 6.5602428 60.074956) with tilt (1.553901 0 0)
  triclinic box = (0 0 0) to (6.7417649 6.5602428 60.074956) with tilt (1.553901 0 0)
  triclinic box = (0 0 0) to (6.7417649 6.5602428 60.074956) with tilt (1.553901 0 0)
  triclinic box = (0 0 0) to (6.7417649 6.5602428 60.074956) with tilt (1.553901 0 0)
echo none
run 0
WARNING: No fixes with time integration, atoms won't move (src/verlet.cpp:60)
Per MPI rank memory allocation (min/avg/max) = 8.748 | 8.748 | 8.748 Mbytes
    PotEng          Pxx           E_mol          E_coul    
-140.54529     -306.2646       0              0            
Loop time of 1.158e-06 on 1 procs for 0 steps with 48 atoms

259.1% CPU use with 1 MPI tasks x 1 OpenMP threads

MPI task timing breakdown:
Section |  min time  |  avg time  |  max time  |%varavg| %total
---------------------------------------------------------------
Pair    | 0          | 0          | 0          |   0.0 |  0.00
Neigh   | 0          | 0          | 0          |   0.0 |  0.00
Comm    | 0          | 0          | 0          |   0.0 |  0.00
Output  | 0          | 0          | 0          |   0.0 |  0.00
Modify  | 0          | 0          | 0          |   0.0 |  0.00
Other   |            | 1.158e-06  |            |       |100.00

Nlocal:             48 ave          48 max          48 min
Histogram: 1 0 0 0 0 0 0 0 0 0
Nghost:            485 ave         485 max         485 min
Histogram: 1 0 0 0 0 0 0 0 0 0
Neighs:           1390 ave        1390 max        1390 min
Histogram: 1 0 0 0 0 0 0 0 0 0
FullNghs:         2780 ave        2780 max        2780 min
Histogram: 1 0 0 0 0 0 0 0 0 0

Total # of neighbors = 2780
Ave neighs/atom = 57.916667
Neighbor list builds = 0
Dangerous builds = 0
set atom * x 0.0 y 0.0 z 0.0
Setting atom values ...
  48 settings made for x
  48 settings made for y
  48 settings made for z
change_box all     x final 0 6.7417648799254986 y final 0 6.560242775378095 z final 0 60.074956206985924      xy final 1.5539010342671078 xz final 0.0 yz final 0.0 units box
Changing box ...
  triclinic box = (0 0 0) to (6.7417649 6.5602428 60.074956) with tilt (1.553901 0 0)
  triclinic box = (0 0 0) to (6.7417649 6.5602428 60.074956) with tilt (1.553901 0 0)
  triclinic box = (0 0 0) to (6.7417649 6.5602428 60.074956) with tilt (1.553901 0 0)
  triclinic box = (0 0 0) to (6.7417649 6.5602428 60.074956) with tilt (1.553901 0 0)
  triclinic box = (0 0 0) to (6.7417649 6.5602428 60.074956) with tilt (1.553901 0 0)
  triclinic box = (0 0 0) to (6.7417649 6.5602428 60.074956) with tilt (1.553901 0 0)
echo none
run 0
WARNING: No fixes with time integration, atoms won't move (src/verlet.cpp:60)
Per MPI rank memory allocation (min/avg/max) = 8.748 | 8.748 | 8.748 Mbytes
    PotEng          Pxx           E_mol          E_coul    
-140.5611      -483.70886      0              0            
Loop time of 9.29e-07 on 1 procs for 0 steps with 48 atoms

215.3% CPU use with 1 MPI tasks x 1 OpenMP threads

MPI task timing breakdown:
Section |  min time  |  avg time  |  max time  |%varavg| %total
---------------------------------------------------------------
Pair    | 0          | 0          | 0          |   0.0 |  0.00
Neigh   | 0          | 0          | 0          |   0.0 |  0.00
Comm    | 0          | 0          | 0          |   0.0 |  0.00
Output  | 0          | 0          | 0          |   0.0 |  0.00
Modify  | 0          | 0          | 0          |   0.0 |  0.00
Other   |            | 9.29e-07   |            |       |100.00

Nlocal:             48 ave          48 max          48 min
Histogram: 1 0 0 0 0 0 0 0 0 0
Nghost:            485 ave         485 max         485 min
Histogram: 1 0 0 0 0 0 0 0 0 0
Neighs:           1390 ave        1390 max        1390 min
Histogram: 1 0 0 0 0 0 0 0 0 0
FullNghs:         2780 ave        2780 max        2780 min
Histogram: 1 0 0 0 0 0 0 0 0 0

Total # of neighbors = 2780
Ave neighs/atom = 57.916667
Neighbor list builds = 0
Dangerous builds = 0
set atom * x 0.0 y 0.0 z 0.0
Setting atom values ...
  48 settings made for x
  48 settings made for y
  48 settings made for z
change_box all     x final 0 6.7417648799254986 y final 0 6.560242775378095 z final 0 60.074956206985924      xy final 1.5539010342671078 xz final 0.0 yz final 0.0 units box
Changing box ...
  triclinic box = (0 0 0) to (6.7417649 6.5602428 60.074956) with tilt (1.553901 0 0)
  triclinic box = (0 0 0) to (6.7417649 6.5602428 60.074956) with tilt (1.553901 0 0)
  triclinic box = (0 0 0) to (6.7417649 6.5602428 60.074956) with tilt (1.553901 0 0)
  triclinic box = (0 0 0) to (6.7417649 6.5602428 60.074956) with tilt (1.553901 0 0)
  triclinic box = (0 0 0) to (6.7417649 6.5602428 60.074956) with tilt (1.553901 0 0)
  triclinic box = (0 0 0) to (6.7417649 6.5602428 60.074956) with tilt (1.553901 0 0)
echo none
run 0
WARNING: No fixes with time integration, atoms won't move (src/verlet.cpp:60)
Per MPI rank memory allocation (min/avg/max) = 8.748 | 8.748 | 8.748 Mbytes
    PotEng          Pxx           E_mol          E_coul    
-140.57312     -640.69886      0              0            
Loop time of 9.57e-07 on 1 procs for 0 steps with 48 atoms

209.0% CPU use with 1 MPI tasks x 1 OpenMP threads

MPI task timing breakdown:
Section |  min time  |  avg time  |  max time  |%varavg| %total
---------------------------------------------------------------
Pair    | 0          | 0          | 0          |   0.0 |  0.00
Neigh   | 0          | 0          | 0          |   0.0 |  0.00
Comm    | 0          | 0          | 0          |   0.0 |  0.00
Output  | 0          | 0          | 0          |   0.0 |  0.00
Modify  | 0          | 0          | 0          |   0.0 |  0.00
Other   |            | 9.57e-07   |            |       |100.00

Nlocal:             48 ave          48 max          48 min
Histogram: 1 0 0 0 0 0 0 0 0 0
Nghost:            485 ave         485 max         485 min
Histogram: 1 0 0 0 0 0 0 0 0 0
Neighs:           1390 ave        1390 max        1390 min
Histogram: 1 0 0 0 0 0 0 0 0 0
FullNghs:         2780 ave        2780 max        2780 min
Histogram: 1 0 0 0 0 0 0 0 0 0

Total # of neighbors = 2780
Ave neighs/atom = 57.916667
Neighbor list builds = 0
Dangerous builds = 0
set atom * x 0.0 y 0.0 z 0.0
Setting atom values ...
  48 settings made for x
  48 settings made for y
  48 settings made for z
change_box all     x final 0 6.7417648799254986 y final 0 6.560242775378095 z final 0 60.074956206985924      xy final 1.5539010342671078 xz final 0.0 yz final 0.0 units box
Changing box ...
  triclinic box = (0 0 0) to (6.7417649 6.5602428 60.074956) with tilt (1.553901 0 0)
  triclinic box = (0 0 0) to (6.7417649 6.5602428 60.074956) with tilt (1.553901 0 0)
  triclinic box = (0 0 0) to (6.7417649 6.5602428 60.074956) with tilt (1.553901 0 0)
  triclinic box = (0 0 0) to (6.7417649 6.5602428 60.074956) with tilt (1.553901 0 0)
  triclinic box = (0 0 0) to (6.7417649 6.5602428 60.074956) with tilt (1.553901 0 0)
  triclinic box = (0 0 0) to (6.7417649 6.5602428 60.074956) with tilt (1.553901 0 0)
echo none
run 0
WARNING: No fixes with time integration, atoms won't move (src/verlet.cpp:60)
Per MPI rank memory allocation (min/avg/max) = 8.748 | 8.748 | 8.748 Mbytes
    PotEng          Pxx           E_mol          E_coul    
-140.58289     -783.11201      0              0            
Loop time of 1.326e-06 on 1 procs for 0 steps with 48 atoms

226.2% CPU use with 1 MPI tasks x 1 OpenMP threads

MPI task timing breakdown:
Section |  min time  |  avg time  |  max time  |%varavg| %total
---------------------------------------------------------------
Pair    | 0          | 0          | 0          |   0.0 |  0.00
Neigh   | 0          | 0          | 0          |   0.0 |  0.00
Comm    | 0          | 0          | 0          |   0.0 |  0.00
Output  | 0          | 0          | 0          |   0.0 |  0.00
Modify  | 0          | 0          | 0          |   0.0 |  0.00
Other   |            | 1.326e-06  |            |       |100.00

Nlocal:             48 ave          48 max          48 min
Histogram: 1 0 0 0 0 0 0 0 0 0
Nghost:            485 ave         485 max         485 min
Histogram: 1 0 0 0 0 0 0 0 0 0
Neighs:           1388 ave        1388 max        1388 min
Histogram: 1 0 0 0 0 0 0 0 0 0
FullNghs:         2776 ave        2776 max        2776 min
Histogram: 1 0 0 0 0 0 0 0 0 0

Total # of neighbors = 2776
Ave neighs/atom = 57.833333
Neighbor list builds = 0
Dangerous builds = 0
set atom * x 0.0 y 0.0 z 0.0
Setting atom values ...
  48 settings made for x
  48 settings made for y
  48 settings made for z
change_box all     x final 0 6.7417648799254986 y final 0 6.560242775378095 z final 0 60.074956206985924      xy final 1.5539010342671078 xz final 0.0 yz final 0.0 units box
Changing box ...
  triclinic box = (0 0 0) to (6.7417649 6.5602428 60.074956) with tilt (1.553901 0 0)
  triclinic box = (0 0 0) to (6.7417649 6.5602428 60.074956) with tilt (1.553901 0 0)
  triclinic box = (0 0 0) to (6.7417649 6.5602428 60.074956) with tilt (1.553901 0 0)
  triclinic box = (0 0 0) to (6.7417649 6.5602428 60.074956) with tilt (1.553901 0 0)
  triclinic box = (0 0 0) to (6.7417649 6.5602428 60.074956) with tilt (1.553901 0 0)
  triclinic box = (0 0 0) to (6.7417649 6.5602428 60.074956) with tilt (1.553901 0 0)
echo none
run 0
WARNING: No fixes with time integration, atoms won't move (src/verlet.cpp:60)
Per MPI rank memory allocation (min/avg/max) = 8.748 | 8.748 | 8.748 Mbytes
    PotEng          Pxx           E_mol          E_coul    
-140.59159     -920.41835      0              0            
Loop time of 9.23e-07 on 1 procs for 0 steps with 48 atoms

216.7% CPU use with 1 MPI tasks x 1 OpenMP threads

MPI task timing breakdown:
Section |  min time  |  avg time  |  max time  |%varavg| %total
---------------------------------------------------------------
Pair    | 0          | 0          | 0          |   0.0 |  0.00
Neigh   | 0          | 0          | 0          |   0.0 |  0.00
Comm    | 0          | 0          | 0          |   0.0 |  0.00
Output  | 0          | 0          | 0          |   0.0 |  0.00
Modify  | 0          | 0          | 0          |   0.0 |  0.00
Other   |            | 9.23e-07   |            |       |100.00

Nlocal:             48 ave          48 max          48 min
Histogram: 1 0 0 0 0 0 0 0 0 0
Nghost:            485 ave         485 max         485 min
Histogram: 1 0 0 0 0 0 0 0 0 0
Neighs:           1388 ave        1388 max        1388 min
Histogram: 1 0 0 0 0 0 0 0 0 0
FullNghs:         2776 ave        2776 max        2776 min
Histogram: 1 0 0 0 0 0 0 0 0 0

Total # of neighbors = 2776
Ave neighs/atom = 57.833333
Neighbor list builds = 0
Dangerous builds = 0
set atom * x 0.0 y 0.0 z 0.0
Setting atom values ...
  48 settings made for x
  48 settings made for y
  48 settings made for z
change_box all     x final 0 6.7417648799254986 y final 0 6.560242775378095 z final 0 60.074956206985924      xy final 1.5539010342671078 xz final 0.0 yz final 0.0 units box
Changing box ...
  triclinic box = (0 0 0) to (6.7417649 6.5602428 60.074956) with tilt (1.553901 0 0)
  triclinic box = (0 0 0) to (6.7417649 6.5602428 60.074956) with tilt (1.553901 0 0)
  triclinic box = (0 0 0) to (6.7417649 6.5602428 60.074956) with tilt (1.553901 0 0)
  triclinic box = (0 0 0) to (6.7417649 6.5602428 60.074956) with tilt (1.553901 0 0)
  triclinic box = (0 0 0) to (6.7417649 6.5602428 60.074956) with tilt (1.553901 0 0)
  triclinic box = (0 0 0) to (6.7417649 6.5602428 60.074956) with tilt (1.553901 0 0)
echo none
run 0
WARNING: No fixes with time integration, atoms won't move (src/verlet.cpp:60)
Per MPI rank memory allocation (min/avg/max) = 8.748 | 8.748 | 8.748 Mbytes
    PotEng          Pxx           E_mol          E_coul    
-140.59971     -1046.2555      0              0            
Loop time of 9.73e-07 on 1 procs for 0 steps with 48 atoms

308.3% CPU use with 1 MPI tasks x 1 OpenMP threads

MPI task timing breakdown:
Section |  min time  |  avg time  |  max time  |%varavg| %total
---------------------------------------------------------------
Pair    | 0          | 0          | 0          |   0.0 |  0.00
Neigh   | 0          | 0          | 0          |   0.0 |  0.00
Comm    | 0          | 0          | 0          |   0.0 |  0.00
Output  | 0          | 0          | 0          |   0.0 |  0.00
Modify  | 0          | 0          | 0          |   0.0 |  0.00
Other   |            | 9.73e-07   |            |       |100.00

Nlocal:             48 ave          48 max          48 min
Histogram: 1 0 0 0 0 0 0 0 0 0
Nghost:            485 ave         485 max         485 min
Histogram: 1 0 0 0 0 0 0 0 0 0
Neighs:           1388 ave        1388 max        1388 min
Histogram: 1 0 0 0 0 0 0 0 0 0
FullNghs:         2776 ave        2776 max        2776 min
Histogram: 1 0 0 0 0 0 0 0 0 0

Total # of neighbors = 2776
Ave neighs/atom = 57.833333
Neighbor list builds = 0
Dangerous builds = 0
set atom * x 0.0 y 0.0 z 0.0
Setting atom values ...
  48 settings made for x
  48 settings made for y
  48 settings made for z
change_box all     x final 0 6.7417648799254986 y final 0 6.560242775378095 z final 0 60.074956206985924      xy final 1.5539010342671078 xz final 0.0 yz final 0.0 units box
Changing box ...
  triclinic box = (0 0 0) to (6.7417649 6.5602428 60.074956) with tilt (1.553901 0 0)
  triclinic box = (0 0 0) to (6.7417649 6.5602428 60.074956) with tilt (1.553901 0 0)
  triclinic box = (0 0 0) to (6.7417649 6.5602428 60.074956) with tilt (1.553901 0 0)
  triclinic box = (0 0 0) to (6.7417649 6.5602428 60.074956) with tilt (1.553901 0 0)
  triclinic box = (0 0 0) to (6.7417649 6.5602428 60.074956) with tilt (1.553901 0 0)
  triclinic box = (0 0 0) to (6.7417649 6.5602428 60.074956) with tilt (1.553901 0 0)
echo none
run 0
WARNING: No fixes with time integration, atoms won't move (src/verlet.cpp:60)
Per MPI rank memory allocation (min/avg/max) = 8.748 | 8.748 | 8.748 Mbytes
    PotEng          Pxx           E_mol          E_coul    
-140.60748     -1145.6548      0              0            
Loop time of 8.82e-07 on 1 procs for 0 steps with 48 atoms

226.8% CPU use with 1 MPI tasks x 1 OpenMP threads

MPI task timing breakdown:
Section |  min time  |  avg time  |  max time  |%varavg| %total
---------------------------------------------------------------
Pair    | 0          | 0          | 0          |   0.0 |  0.00
Neigh   | 0          | 0          | 0          |   0.0 |  0.00
Comm    | 0          | 0          | 0          |   0.0 |  0.00
Output  | 0          | 0          | 0          |   0.0 |  0.00
Modify  | 0          | 0          | 0          |   0.0 |  0.00
Other   |            | 8.82e-07   |            |       |100.00

Nlocal:             48 ave          48 max          48 min
Histogram: 1 0 0 0 0 0 0 0 0 0
Nghost:            485 ave         485 max         485 min
Histogram: 1 0 0 0 0 0 0 0 0 0
Neighs:           1388 ave        1388 max        1388 min
Histogram: 1 0 0 0 0 0 0 0 0 0
FullNghs:         2776 ave        2776 max        2776 min
Histogram: 1 0 0 0 0 0 0 0 0 0

Total # of neighbors = 2776
Ave neighs/atom = 57.833333
Neighbor list builds = 0
Dangerous builds = 0
set atom * x 0.0 y 0.0 z 0.0
Setting atom values ...
  48 settings made for x
  48 settings made for y
  48 settings made for z
change_box all     x final 0 6.7417648799254986 y final 0 6.560242775378095 z final 0 60.074956206985924      xy final 1.5539010342671078 xz final 0.0 yz final 0.0 units box
Changing box ...
  triclinic box = (0 0 0) to (6.7417649 6.5602428 60.074956) with tilt (1.553901 0 0)
  triclinic box = (0 0 0) to (6.7417649 6.5602428 60.074956) with tilt (1.553901 0 0)
  triclinic box = (0 0 0) to (6.7417649 6.5602428 60.074956) with tilt (1.553901 0 0)
  triclinic box = (0 0 0) to (6.7417649 6.5602428 60.074956) with tilt (1.553901 0 0)
  triclinic box = (0 0 0) to (6.7417649 6.5602428 60.074956) with tilt (1.553901 0 0)
  triclinic box = (0 0 0) to (6.7417649 6.5602428 60.074956) with tilt (1.553901 0 0)
echo none
run 0
WARNING: No fixes with time integration, atoms won't move (src/verlet.cpp:60)
Per MPI rank memory allocation (min/avg/max) = 8.748 | 8.748 | 8.748 Mbytes
    PotEng          Pxx           E_mol          E_coul    
-140.61471     -1207.7445      0              0            
Loop time of 8.5e-07 on 1 procs for 0 steps with 48 atoms

352.9% CPU use with 1 MPI tasks x 1 OpenMP threads

MPI task timing breakdown:
Section |  min time  |  avg time  |  max time  |%varavg| %total
---------------------------------------------------------------
Pair    | 0          | 0          | 0          |   0.0 |  0.00
Neigh   | 0          | 0          | 0          |   0.0 |  0.00
Comm    | 0          | 0          | 0          |   0.0 |  0.00
Output  | 0          | 0          | 0          |   0.0 |  0.00
Modify  | 0          | 0          | 0          |   0.0 |  0.00
Other   |            | 8.5e-07    |            |       |100.00

Nlocal:             48 ave          48 max          48 min
Histogram: 1 0 0 0 0 0 0 0 0 0
Nghost:            485 ave         485 max         485 min
Histogram: 1 0 0 0 0 0 0 0 0 0
Neighs:           1386 ave        1386 max        1386 min
Histogram: 1 0 0 0 0 0 0 0 0 0
FullNghs:         2772 ave        2772 max        2772 min
Histogram: 1 0 0 0 0 0 0 0 0 0

Total # of neighbors = 2772
Ave neighs/atom = 57.75
Neighbor list builds = 0
Dangerous builds = 0
set atom * x 0.0 y 0.0 z 0.0
Setting atom values ...
  48 settings made for x
  48 settings made for y
  48 settings made for z
change_box all     x final 0 6.7417648799254986 y final 0 6.560242775378095 z final 0 60.074956206985924      xy final 1.5539010342671078 xz final 0.0 yz final 0.0 units box
Changing box ...
  triclinic box = (0 0 0) to (6.7417649 6.5602428 60.074956) with tilt (1.553901 0 0)
  triclinic box = (0 0 0) to (6.7417649 6.5602428 60.074956) with tilt (1.553901 0 0)
  triclinic box = (0 0 0) to (6.7417649 6.5602428 60.074956) with tilt (1.553901 0 0)
  triclinic box = (0 0 0) to (6.7417649 6.5602428 60.074956) with tilt (1.553901 0 0)
  triclinic box = (0 0 0) to (6.7417649 6.5602428 60.074956) with tilt (1.553901 0 0)
  triclinic box = (0 0 0) to (6.7417649 6.5602428 60.074956) with tilt (1.553901 0 0)
echo none
run 0
WARNING: No fixes with time integration, atoms won't move (src/verlet.cpp:60)
Per MPI rank memory allocation (min/avg/max) = 8.748 | 8.748 | 8.748 Mbytes
    PotEng          Pxx           E_mol          E_coul    
-140.62098     -1241.862       0              0            
Loop time of 1.268e-06 on 1 procs for 0 steps with 48 atoms

236.6% CPU use with 1 MPI tasks x 1 OpenMP threads

MPI task timing breakdown:
Section |  min time  |  avg time  |  max time  |%varavg| %total
---------------------------------------------------------------
Pair    | 0          | 0          | 0          |   0.0 |  0.00
Neigh   | 0          | 0          | 0          |   0.0 |  0.00
Comm    | 0          | 0          | 0          |   0.0 |  0.00
Output  | 0          | 0          | 0          |   0.0 |  0.00
Modify  | 0          | 0          | 0          |   0.0 |  0.00
Other   |            | 1.268e-06  |            |       |100.00

Nlocal:             48 ave          48 max          48 min
Histogram: 1 0 0 0 0 0 0 0 0 0
Nghost:            485 ave         485 max         485 min
Histogram: 1 0 0 0 0 0 0 0 0 0
Neighs:           1386 ave        1386 max        1386 min
Histogram: 1 0 0 0 0 0 0 0 0 0
FullNghs:         2772 ave        2772 max        2772 min
Histogram: 1 0 0 0 0 0 0 0 0 0

Total # of neighbors = 2772
Ave neighs/atom = 57.75
Neighbor list builds = 0
Dangerous builds = 0
set atom * x 0.0 y 0.0 z 0.0
Setting atom values ...
  48 settings made for x
  48 settings made for y
  48 settings made for z
change_box all     x final 0 6.7417648799254986 y final 0 6.560242775378095 z final 0 60.074956206985924      xy final 1.5539010342671078 xz final 0.0 yz final 0.0 units box
Changing box ...
  triclinic box = (0 0 0) to (6.7417649 6.5602428 60.074956) with tilt (1.553901 0 0)
  triclinic box = (0 0 0) to (6.7417649 6.5602428 60.074956) with tilt (1.553901 0 0)
  triclinic box = (0 0 0) to (6.7417649 6.5602428 60.074956) with tilt (1.553901 0 0)
  triclinic box = (0 0 0) to (6.7417649 6.5602428 60.074956) with tilt (1.553901 0 0)
  triclinic box = (0 0 0) to (6.7417649 6.5602428 60.074956) with tilt (1.553901 0 0)
  triclinic box = (0 0 0) to (6.7417649 6.5602428 60.074956) with tilt (1.553901 0 0)
echo none
run 0
WARNING: No fixes with time integration, atoms won't move (src/verlet.cpp:60)
Per MPI rank memory allocation (min/avg/max) = 8.748 | 8.748 | 8.748 Mbytes
    PotEng          Pxx           E_mol          E_coul    
-140.62635     -1278.7705      0              0            
Loop time of 1.511e-06 on 1 procs for 0 steps with 48 atoms

198.5% CPU use with 1 MPI tasks x 1 OpenMP threads

MPI task timing breakdown:
Section |  min time  |  avg time  |  max time  |%varavg| %total
---------------------------------------------------------------
Pair    | 0          | 0          | 0          |   0.0 |  0.00
Neigh   | 0          | 0          | 0          |   0.0 |  0.00
Comm    | 0          | 0          | 0          |   0.0 |  0.00
Output  | 0          | 0          | 0          |   0.0 |  0.00
Modify  | 0          | 0          | 0          |   0.0 |  0.00
Other   |            | 1.511e-06  |            |       |100.00

Nlocal:             48 ave          48 max          48 min
Histogram: 1 0 0 0 0 0 0 0 0 0
Nghost:            485 ave         485 max         485 min
Histogram: 1 0 0 0 0 0 0 0 0 0
Neighs:           1386 ave        1386 max        1386 min
Histogram: 1 0 0 0 0 0 0 0 0 0
FullNghs:         2772 ave        2772 max        2772 min
Histogram: 1 0 0 0 0 0 0 0 0 0

Total # of neighbors = 2772
Ave neighs/atom = 57.75
Neighbor list builds = 0
Dangerous builds = 0
set atom * x 0.0 y 0.0 z 0.0
Setting atom values ...
  48 settings made for x
  48 settings made for y
  48 settings made for z
change_box all     x final 0 6.7417648799254986 y final 0 6.560242775378095 z final 0 60.074956206985924      xy final 1.5539010342671078 xz final 0.0 yz final 0.0 units box
Changing box ...
  triclinic box = (0 0 0) to (6.7417649 6.5602428 60.074956) with tilt (1.553901 0 0)
  triclinic box = (0 0 0) to (6.7417649 6.5602428 60.074956) with tilt (1.553901 0 0)
  triclinic box = (0 0 0) to (6.7417649 6.5602428 60.074956) with tilt (1.553901 0 0)
  triclinic box = (0 0 0) to (6.7417649 6.5602428 60.074956) with tilt (1.553901 0 0)
  triclinic box = (0 0 0) to (6.7417649 6.5602428 60.074956) with tilt (1.553901 0 0)
  triclinic box = (0 0 0) to (6.7417649 6.5602428 60.074956) with tilt (1.553901 0 0)
echo none
run 0
WARNING: No fixes with time integration, atoms won't move (src/verlet.cpp:60)
Per MPI rank memory allocation (min/avg/max) = 8.748 | 8.748 | 8.748 Mbytes
    PotEng          Pxx           E_mol          E_coul    
-140.63138     -1350.0522      0              0            
Loop time of 1.068e-06 on 1 procs for 0 steps with 48 atoms

187.3% CPU use with 1 MPI tasks x 1 OpenMP threads

MPI task timing breakdown:
Section |  min time  |  avg time  |  max time  |%varavg| %total
---------------------------------------------------------------
Pair    | 0          | 0          | 0          |   0.0 |  0.00
Neigh   | 0          | 0          | 0          |   0.0 |  0.00
Comm    | 0          | 0          | 0          |   0.0 |  0.00
Output  | 0          | 0          | 0          |   0.0 |  0.00
Modify  | 0          | 0          | 0          |   0.0 |  0.00
Other   |            | 1.068e-06  |            |       |100.00

Nlocal:             48 ave          48 max          48 min
Histogram: 1 0 0 0 0 0 0 0 0 0
Nghost:            485 ave         485 max         485 min
Histogram: 1 0 0 0 0 0 0 0 0 0
Neighs:           1384 ave        1384 max        1384 min
Histogram: 1 0 0 0 0 0 0 0 0 0
FullNghs:         2768 ave        2768 max        2768 min
Histogram: 1 0 0 0 0 0 0 0 0 0

Total # of neighbors = 2768
Ave neighs/atom = 57.666667
Neighbor list builds = 0
Dangerous builds = 0
set atom * x 0.0 y 0.0 z 0.0
Setting atom values ...
  48 settings made for x
  48 settings made for y
  48 settings made for z
change_box all     x final 0 6.7417648799254986 y final 0 6.560242775378095 z final 0 60.074956206985924      xy final 1.5539010342671078 xz final 0.0 yz final 0.0 units box
Changing box ...
  triclinic box = (0 0 0) to (6.7417649 6.5602428 60.074956) with tilt (1.553901 0 0)
  triclinic box = (0 0 0) to (6.7417649 6.5602428 60.074956) with tilt (1.553901 0 0)
  triclinic box = (0 0 0) to (6.7417649 6.5602428 60.074956) with tilt (1.553901 0 0)
  triclinic box = (0 0 0) to (6.7417649 6.5602428 60.074956) with tilt (1.553901 0 0)
  triclinic box = (0 0 0) to (6.7417649 6.5602428 60.074956) with tilt (1.553901 0 0)
  triclinic box = (0 0 0) to (6.7417649 6.5602428 60.074956) with tilt (1.553901 0 0)
echo none
run 0
WARNING: No fixes with time integration, atoms won't move (src/verlet.cpp:60)
Per MPI rank memory allocation (min/avg/max) = 8.748 | 8.748 | 8.748 Mbytes
    PotEng          Pxx           E_mol          E_coul    
-140.63693     -1482.4846      0              0            
Loop time of 1.33e-06 on 1 procs for 0 steps with 48 atoms

225.6% CPU use with 1 MPI tasks x 1 OpenMP threads

MPI task timing breakdown:
Section |  min time  |  avg time  |  max time  |%varavg| %total
---------------------------------------------------------------
Pair    | 0          | 0          | 0          |   0.0 |  0.00
Neigh   | 0          | 0          | 0          |   0.0 |  0.00
Comm    | 0          | 0          | 0          |   0.0 |  0.00
Output  | 0          | 0          | 0          |   0.0 |  0.00
Modify  | 0          | 0          | 0          |   0.0 |  0.00
Other   |            | 1.33e-06   |            |       |100.00

Nlocal:             48 ave          48 max          48 min
Histogram: 1 0 0 0 0 0 0 0 0 0
Nghost:            485 ave         485 max         485 min
Histogram: 1 0 0 0 0 0 0 0 0 0
Neighs:           1384 ave        1384 max        1384 min
Histogram: 1 0 0 0 0 0 0 0 0 0
FullNghs:         2768 ave        2768 max        2768 min
Histogram: 1 0 0 0 0 0 0 0 0 0

Total # of neighbors = 2768
Ave neighs/atom = 57.666667
Neighbor list builds = 0
Dangerous builds = 0
set atom * x 0.0 y 0.0 z 0.0
Setting atom values ...
  48 settings made for x
  48 settings made for y
  48 settings made for z
change_box all     x final 0 6.7417648799254986 y final 0 6.560242775378095 z final 0 60.074956206985924      xy final 1.5539010342671078 xz final 0.0 yz final 0.0 units box
Changing box ...
  triclinic box = (0 0 0) to (6.7417649 6.5602428 60.074956) with tilt (1.553901 0 0)
  triclinic box = (0 0 0) to (6.7417649 6.5602428 60.074956) with tilt (1.553901 0 0)
[...]
Histogram: 1 0 0 0 0 0 0 0 0 0

Total # of neighbors = 2768
Ave neighs/atom = 57.666667
Neighbor list builds = 0
Dangerous builds = 0
set atom * x 0.0 y 0.0 z 0.0
Setting atom values ...
  48 settings made for x
  48 settings made for y
  48 settings made for z
change_box all     x final 0 6.7417648799254986 y final 0 6.560242775378095 z final 0 60.074956206985924      xy final 1.5539010342671078 xz final 0.0 yz final 0.0 units box
Changing box ...
  triclinic box = (0 0 0) to (6.7417649 6.5602428 60.074956) with tilt (1.553901 0 0)
  triclinic box = (0 0 0) to (6.7417649 6.5602428 60.074956) with tilt (1.553901 0 0)
  triclinic box = (0 0 0) to (6.7417649 6.5602428 60.074956) with tilt (1.553901 0 0)
  triclinic box = (0 0 0) to (6.7417649 6.5602428 60.074956) with tilt (1.553901 0 0)
  triclinic box = (0 0 0) to (6.7417649 6.5602428 60.074956) with tilt (1.553901 0 0)
  triclinic box = (0 0 0) to (6.7417649 6.5602428 60.074956) with tilt (1.553901 0 0)
echo none
run 0
WARNING: No fixes with time integration, atoms won't move (src/verlet.cpp:60)
Per MPI rank memory allocation (min/avg/max) = 8.748 | 8.748 | 8.748 Mbytes
    PotEng          Pxx           E_mol          E_coul    
-140.7139      -4778.8659      0              0            
Loop time of 1.431e-06 on 1 procs for 0 steps with 48 atoms

209.6% CPU use with 1 MPI tasks x 1 OpenMP threads

MPI task timing breakdown:
Section |  min time  |  avg time  |  max time  |%varavg| %total
---------------------------------------------------------------
Pair    | 0          | 0          | 0          |   0.0 |  0.00
Neigh   | 0          | 0          | 0          |   0.0 |  0.00
Comm    | 0          | 0          | 0          |   0.0 |  0.00
Output  | 0          | 0          | 0          |   0.0 |  0.00
Modify  | 0          | 0          | 0          |   0.0 |  0.00
Other   |            | 1.431e-06  |            |       |100.00

Nlocal:             48 ave          48 max          48 min
Histogram: 1 0 0 0 0 0 0 0 0 0
Nghost:            478 ave         478 max         478 min
Histogram: 1 0 0 0 0 0 0 0 0 0
Neighs:           1384 ave        1384 max        1384 min
Histogram: 1 0 0 0 0 0 0 0 0 0
FullNghs:         2768 ave        2768 max        2768 min
Histogram: 1 0 0 0 0 0 0 0 0 0

Total # of neighbors = 2768
Ave neighs/atom = 57.666667
Neighbor list builds = 0
Dangerous builds = 0
set atom * x 0.0 y 0.0 z 0.0
Setting atom values ...
  48 settings made for x
  48 settings made for y
  48 settings made for z
change_box all     x final 0 6.7417648799254986 y final 0 6.560242775378095 z final 0 60.074956206985924      xy final 1.5539010342671078 xz final 0.0 yz final 0.0 units box
Changing box ...
  triclinic box = (0 0 0) to (6.7417649 6.5602428 60.074956) with tilt (1.553901 0 0)
  triclinic box = (0 0 0) to (6.7417649 6.5602428 60.074956) with tilt (1.553901 0 0)
  triclinic box = (0 0 0) to (6.7417649 6.5602428 60.074956) with tilt (1.553901 0 0)
  triclinic box = (0 0 0) to (6.7417649 6.5602428 60.074956) with tilt (1.553901 0 0)
  triclinic box = (0 0 0) to (6.7417649 6.5602428 60.074956) with tilt (1.553901 0 0)
  triclinic box = (0 0 0) to (6.7417649 6.5602428 60.074956) with tilt (1.553901 0 0)
echo none
run 0
WARNING: No fixes with time integration, atoms won't move (src/verlet.cpp:60)
Per MPI rank memory allocation (min/avg/max) = 8.748 | 8.748 | 8.748 Mbytes
    PotEng          Pxx           E_mol          E_coul    
-140.714       -4811.7443      0              0            
Loop time of 1.094e-06 on 1 procs for 0 steps with 48 atoms

182.8% CPU use with 1 MPI tasks x 1 OpenMP threads

MPI task timing breakdown:
Section |  min time  |  avg time  |  max time  |%varavg| %total
---------------------------------------------------------------
Pair    | 0          | 0          | 0          |   0.0 |  0.00
Neigh   | 0          | 0          | 0          |   0.0 |  0.00
Comm    | 0          | 0          | 0          |   0.0 |  0.00
Output  | 0          | 0          | 0          |   0.0 |  0.00
Modify  | 0          | 0          | 0          |   0.0 |  0.00
Other   |            | 1.094e-06  |            |       |100.00

Nlocal:             48 ave          48 max          48 min
Histogram: 1 0 0 0 0 0 0 0 0 0
Nghost:            478 ave         478 max         478 min
Histogram: 1 0 0 0 0 0 0 0 0 0
Neighs:           1384 ave        1384 max        1384 min
Histogram: 1 0 0 0 0 0 0 0 0 0
FullNghs:         2768 ave        2768 max        2768 min
Histogram: 1 0 0 0 0 0 0 0 0 0

Total # of neighbors = 2768
Ave neighs/atom = 57.666667
Neighbor list builds = 0
Dangerous builds = 0
set atom * x 0.0 y 0.0 z 0.0
Setting atom values ...
  48 settings made for x
  48 settings made for y
  48 settings made for z
change_box all     x final 0 6.7417648799254986 y final 0 6.560242775378095 z final 0 60.074956206985924      xy final 1.5539010342671078 xz final 0.0 yz final 0.0 units box
Changing box ...
  triclinic box = (0 0 0) to (6.7417649 6.5602428 60.074956) with tilt (1.553901 0 0)
  triclinic box = (0 0 0) to (6.7417649 6.5602428 60.074956) with tilt (1.553901 0 0)
  triclinic box = (0 0 0) to (6.7417649 6.5602428 60.074956) with tilt (1.553901 0 0)
  triclinic box = (0 0 0) to (6.7417649 6.5602428 60.074956) with tilt (1.553901 0 0)
  triclinic box = (0 0 0) to (6.7417649 6.5602428 60.074956) with tilt (1.553901 0 0)
  triclinic box = (0 0 0) to (6.7417649 6.5602428 60.074956) with tilt (1.553901 0 0)
echo none
run 0
WARNING: No fixes with time integration, atoms won't move (src/verlet.cpp:60)
Per MPI rank memory allocation (min/avg/max) = 8.748 | 8.748 | 8.748 Mbytes
    PotEng          Pxx           E_mol          E_coul    
-140.71411     -4848.0079      0              0            
Loop time of 1.548e-06 on 1 procs for 0 steps with 48 atoms

193.8% CPU use with 1 MPI tasks x 1 OpenMP threads

MPI task timing breakdown:
Section |  min time  |  avg time  |  max time  |%varavg| %total
---------------------------------------------------------------
Pair    | 0          | 0          | 0          |   0.0 |  0.00
Neigh   | 0          | 0          | 0          |   0.0 |  0.00
Comm    | 0          | 0          | 0          |   0.0 |  0.00
Output  | 0          | 0          | 0          |   0.0 |  0.00
Modify  | 0          | 0          | 0          |   0.0 |  0.00
Other   |            | 1.548e-06  |            |       |100.00

Nlocal:             48 ave          48 max          48 min
Histogram: 1 0 0 0 0 0 0 0 0 0
Nghost:            478 ave         478 max         478 min
Histogram: 1 0 0 0 0 0 0 0 0 0
Neighs:           1384 ave        1384 max        1384 min
Histogram: 1 0 0 0 0 0 0 0 0 0
FullNghs:         2768 ave        2768 max        2768 min
Histogram: 1 0 0 0 0 0 0 0 0 0

Total # of neighbors = 2768
Ave neighs/atom = 57.666667
Neighbor list builds = 0
Dangerous builds = 0
set atom * x 0.0 y 0.0 z 0.0
Setting atom values ...
  48 settings made for x
  48 settings made for y
  48 settings made for z
change_box all     x final 0 6.7417648799254986 y final 0 6.560242775378095 z final 0 60.074956206985924      xy final 1.5539010342671078 xz final 0.0 yz final 0.0 units box
Changing box ...
  triclinic box = (0 0 0) to (6.7417649 6.5602428 60.074956) with tilt (1.553901 0 0)
  triclinic box = (0 0 0) to (6.7417649 6.5602428 60.074956) with tilt (1.553901 0 0)
  triclinic box = (0 0 0) to (6.7417649 6.5602428 60.074956) with tilt (1.553901 0 0)
  triclinic box = (0 0 0) to (6.7417649 6.5602428 60.074956) with tilt (1.553901 0 0)
  triclinic box = (0 0 0) to (6.7417649 6.5602428 60.074956) with tilt (1.553901 0 0)
  triclinic box = (0 0 0) to (6.7417649 6.5602428 60.074956) with tilt (1.553901 0 0)
echo none
run 0
WARNING: No fixes with time integration, atoms won't move (src/verlet.cpp:60)
Per MPI rank memory allocation (min/avg/max) = 8.748 | 8.748 | 8.748 Mbytes
    PotEng          Pxx           E_mol          E_coul    
-140.71421     -4878.8401      0              0            
Loop time of 1.542e-06 on 1 procs for 0 steps with 48 atoms

129.7% CPU use with 1 MPI tasks x 1 OpenMP threads

MPI task timing breakdown:
Section |  min time  |  avg time  |  max time  |%varavg| %total
---------------------------------------------------------------
Pair    | 0          | 0          | 0          |   0.0 |  0.00
Neigh   | 0          | 0          | 0          |   0.0 |  0.00
Comm    | 0          | 0          | 0          |   0.0 |  0.00
Output  | 0          | 0          | 0          |   0.0 |  0.00
Modify  | 0          | 0          | 0          |   0.0 |  0.00
Other   |            | 1.542e-06  |            |       |100.00

Nlocal:             48 ave          48 max          48 min
Histogram: 1 0 0 0 0 0 0 0 0 0
Nghost:            478 ave         478 max         478 min
Histogram: 1 0 0 0 0 0 0 0 0 0
Neighs:           1384 ave        1384 max        1384 min
Histogram: 1 0 0 0 0 0 0 0 0 0
FullNghs:         2768 ave        2768 max        2768 min
Histogram: 1 0 0 0 0 0 0 0 0 0

Total # of neighbors = 2768
Ave neighs/atom = 57.666667
Neighbor list builds = 0
Dangerous builds = 0
set atom * x 0.0 y 0.0 z 0.0
Setting atom values ...
  48 settings made for x
  48 settings made for y
  48 settings made for z
change_box all     x final 0 6.7417648799254986 y final 0 6.560242775378095 z final 0 60.074956206985924      xy final 1.5539010342671078 xz final 0.0 yz final 0.0 units box
Changing box ...
  triclinic box = (0 0 0) to (6.7417649 6.5602428 60.074956) with tilt (1.553901 0 0)
  triclinic box = (0 0 0) to (6.7417649 6.5602428 60.074956) with tilt (1.553901 0 0)
  triclinic box = (0 0 0) to (6.7417649 6.5602428 60.074956) with tilt (1.553901 0 0)
  triclinic box = (0 0 0) to (6.7417649 6.5602428 60.074956) with tilt (1.553901 0 0)
  triclinic box = (0 0 0) to (6.7417649 6.5602428 60.074956) with tilt (1.553901 0 0)
  triclinic box = (0 0 0) to (6.7417649 6.5602428 60.074956) with tilt (1.553901 0 0)
echo none
run 0
Per MPI rank memory allocation (min/avg/max) = 8.748 | 8.748 | 8.748 Mbytes
    PotEng          Pxx           E_mol          E_coul    
WARNING: Too many warnings: 101 vs 100. All future warnings will be suppressed (src/thermo.cpp:478)
-140.71429     -4899.2325      0              0            
Loop time of 1.514e-06 on 1 procs for 0 steps with 48 atoms

198.2% CPU use with 1 MPI tasks x 1 OpenMP threads

MPI task timing breakdown:
Section |  min time  |  avg time  |  max time  |%varavg| %total
---------------------------------------------------------------
Pair    | 0          | 0          | 0          |   0.0 |  0.00
Neigh   | 0          | 0          | 0          |   0.0 |  0.00
Comm    | 0          | 0          | 0          |   0.0 |  0.00
Output  | 0          | 0          | 0          |   0.0 |  0.00
Modify  | 0          | 0          | 0          |   0.0 |  0.00
Other   |            | 1.514e-06  |            |       |100.00

Nlocal:             48 ave          48 max          48 min
Histogram: 1 0 0 0 0 0 0 0 0 0
Nghost:            478 ave         478 max         478 min
Histogram: 1 0 0 0 0 0 0 0 0 0
Neighs:           1384 ave        1384 max        1384 min
Histogram: 1 0 0 0 0 0 0 0 0 0
FullNghs:         2768 ave        2768 max        2768 min
Histogram: 1 0 0 0 0 0 0 0 0 0

Total # of neighbors = 2768
Ave neighs/atom = 57.666667
Neighbor list builds = 0
Dangerous builds = 0
set atom * x 0.0 y 0.0 z 0.0
Setting atom values ...
  48 settings made for x
  48 settings made for y
  48 settings made for z
change_box all     x final 0 6.7417648799254986 y final 0 6.560242775378095 z final 0 60.074956206985924      xy final 1.5539010342671078 xz final 0.0 yz final 0.0 units box
Changing box ...
  triclinic box = (0 0 0) to (6.7417649 6.5602428 60.074956) with tilt (1.553901 0 0)
  triclinic box = (0 0 0) to (6.7417649 6.5602428 60.074956) with tilt (1.553901 0 0)
  triclinic box = (0 0 0) to (6.7417649 6.5602428 60.074956) with tilt (1.553901 0 0)
  triclinic box = (0 0 0) to (6.7417649 6.5602428 60.074956) with tilt (1.553901 0 0)
  triclinic box = (0 0 0) to (6.7417649 6.5602428 60.074956) with tilt (1.553901 0 0)
  triclinic box = (0 0 0) to (6.7417649 6.5602428 60.074956) with tilt (1.553901 0 0)
echo none
run 0
Per MPI rank memory allocation (min/avg/max) = 8.748 | 8.748 | 8.748 Mbytes
    PotEng          Pxx           E_mol          E_coul    
-140.71437     -4913.4494      0              0            
Loop time of 1.532e-06 on 1 procs for 0 steps with 48 atoms

130.5% CPU use with 1 MPI tasks x 1 OpenMP threads

MPI task timing breakdown:
Section |  min time  |  avg time  |  max time  |%varavg| %total
---------------------------------------------------------------
Pair    | 0          | 0          | 0          |   0.0 |  0.00
Neigh   | 0          | 0          | 0          |   0.0 |  0.00
Comm    | 0          | 0          | 0          |   0.0 |  0.00
Output  | 0          | 0          | 0          |   0.0 |  0.00
Modify  | 0          | 0          | 0          |   0.0 |  0.00
Other   |            | 1.532e-06  |            |       |100.00

Nlocal:             48 ave          48 max          48 min
Histogram: 1 0 0 0 0 0 0 0 0 0
Nghost:            478 ave         478 max         478 min
Histogram: 1 0 0 0 0 0 0 0 0 0
Neighs:           1384 ave        1384 max        1384 min
Histogram: 1 0 0 0 0 0 0 0 0 0
FullNghs:         2768 ave        2768 max        2768 min
Histogram: 1 0 0 0 0 0 0 0 0 0

Total # of neighbors = 2768
Ave neighs/atom = 57.666667
Neighbor list builds = 0
Dangerous builds = 0
set atom * x 0.0 y 0.0 z 0.0
Setting atom values ...
  48 settings made for x
  48 settings made for y
  48 settings made for z
change_box all     x final 0 6.7417648799254986 y final 0 6.560242775378095 z final 0 60.074956206985924      xy final 1.5539010342671078 xz final 0.0 yz final 0.0 units box
Changing box ...
  triclinic box = (0 0 0) to (6.7417649 6.5602428 60.074956) with tilt (1.553901 0 0)
  triclinic box = (0 0 0) to (6.7417649 6.5602428 60.074956) with tilt (1.553901 0 0)
  triclinic box = (0 0 0) to (6.7417649 6.5602428 60.074956) with tilt (1.553901 0 0)
  triclinic box = (0 0 0) to (6.7417649 6.5602428 60.074956) with tilt (1.553901 0 0)
  triclinic box = (0 0 0) to (6.7417649 6.5602428 60.074956) with tilt (1.553901 0 0)
  triclinic box = (0 0 0) to (6.7417649 6.5602428 60.074956) with tilt (1.553901 0 0)
echo none
run 0
Per MPI rank memory allocation (min/avg/max) = 8.748 | 8.748 | 8.748 Mbytes
    PotEng          Pxx           E_mol          E_coul    
-140.71447     -4924.7836      0              0            
Loop time of 9.68e-07 on 1 procs for 0 steps with 48 atoms

206.6% CPU use with 1 MPI tasks x 1 OpenMP threads

MPI task timing breakdown:
Section |  min time  |  avg time  |  max time  |%varavg| %total
---------------------------------------------------------------
Pair    | 0          | 0          | 0          |   0.0 |  0.00
Neigh   | 0          | 0          | 0          |   0.0 |  0.00
Comm    | 0          | 0          | 0          |   0.0 |  0.00
Output  | 0          | 0          | 0          |   0.0 |  0.00
Modify  | 0          | 0          | 0          |   0.0 |  0.00
Other   |            | 9.68e-07   |            |       |100.00

Nlocal:             48 ave          48 max          48 min
Histogram: 1 0 0 0 0 0 0 0 0 0
Nghost:            478 ave         478 max         478 min
Histogram: 1 0 0 0 0 0 0 0 0 0
Neighs:           1384 ave        1384 max        1384 min
Histogram: 1 0 0 0 0 0 0 0 0 0
FullNghs:         2768 ave        2768 max        2768 min
Histogram: 1 0 0 0 0 0 0 0 0 0

Total # of neighbors = 2768
Ave neighs/atom = 57.666667
Neighbor list builds = 0
Dangerous builds = 0
set atom * x 0.0 y 0.0 z 0.0
Setting atom values ...
  48 settings made for x
  48 settings made for y
  48 settings made for z
change_box all     x final 0 6.7417648799254986 y final 0 6.560242775378095 z final 0 60.074956206985924      xy final 1.5539010342671078 xz final 0.0 yz final 0.0 units box
Changing box ...
  triclinic box = (0 0 0) to (6.7417649 6.5602428 60.074956) with tilt (1.553901 0 0)
  triclinic box = (0 0 0) to (6.7417649 6.5602428 60.074956) with tilt (1.553901 0 0)
  triclinic box = (0 0 0) to (6.7417649 6.5602428 60.074956) with tilt (1.553901 0 0)
  triclinic box = (0 0 0) to (6.7417649 6.5602428 60.074956) with tilt (1.553901 0 0)
  triclinic box = (0 0 0) to (6.7417649 6.5602428 60.074956) with tilt (1.553901 0 0)
  triclinic box = (0 0 0) to (6.7417649 6.5602428 60.074956) with tilt (1.553901 0 0)
echo none
run 0
Per MPI rank memory allocation (min/avg/max) = 8.748 | 8.748 | 8.748 Mbytes
    PotEng          Pxx           E_mol          E_coul    
-140.71456     -4931.4739      0              0            
Loop time of 8.43e-07 on 1 procs for 0 steps with 48 atoms

237.2% CPU use with 1 MPI tasks x 1 OpenMP threads

MPI task timing breakdown:
Section |  min time  |  avg time  |  max time  |%varavg| %total
---------------------------------------------------------------
Pair    | 0          | 0          | 0          |   0.0 |  0.00
Neigh   | 0          | 0          | 0          |   0.0 |  0.00
Comm    | 0          | 0          | 0          |   0.0 |  0.00
Output  | 0          | 0          | 0          |   0.0 |  0.00
Modify  | 0          | 0          | 0          |   0.0 |  0.00
Other   |            | 8.43e-07   |            |       |100.00

Nlocal:             48 ave          48 max          48 min
Histogram: 1 0 0 0 0 0 0 0 0 0
Nghost:            478 ave         478 max         478 min
Histogram: 1 0 0 0 0 0 0 0 0 0
Neighs:           1384 ave        1384 max        1384 min
Histogram: 1 0 0 0 0 0 0 0 0 0
FullNghs:         2768 ave        2768 max        2768 min
Histogram: 1 0 0 0 0 0 0 0 0 0

Total # of neighbors = 2768
Ave neighs/atom = 57.666667
Neighbor list builds = 0
Dangerous builds = 0
set atom * x 0.0 y 0.0 z 0.0
Setting atom values ...
  48 settings made for x
  48 settings made for y
  48 settings made for z
change_box all     x final 0 6.7417648799254986 y final 0 6.560242775378095 z final 0 60.074956206985924      xy final 1.5539010342671078 xz final 0.0 yz final 0.0 units box
Changing box ...
  triclinic box = (0 0 0) to (6.7417649 6.5602428 60.074956) with tilt (1.553901 0 0)
  triclinic box = (0 0 0) to (6.7417649 6.5602428 60.074956) with tilt (1.553901 0 0)
  triclinic box = (0 0 0) to (6.7417649 6.5602428 60.074956) with tilt (1.553901 0 0)
  triclinic box = (0 0 0) to (6.7417649 6.5602428 60.074956) with tilt (1.553901 0 0)
  triclinic box = (0 0 0) to (6.7417649 6.5602428 60.074956) with tilt (1.553901 0 0)
  triclinic box = (0 0 0) to (6.7417649 6.5602428 60.074956) with tilt (1.553901 0 0)
echo none
run 0
Per MPI rank memory allocation (min/avg/max) = 8.748 | 8.748 | 8.748 Mbytes
    PotEng          Pxx           E_mol          E_coul    
-140.71462     -4931.7664      0              0            
Loop time of 9.64e-07 on 1 procs for 0 steps with 48 atoms

207.5% CPU use with 1 MPI tasks x 1 OpenMP threads

MPI task timing breakdown:
Section |  min time  |  avg time  |  max time  |%varavg| %total
---------------------------------------------------------------
Pair    | 0          | 0          | 0          |   0.0 |  0.00
Neigh   | 0          | 0          | 0          |   0.0 |  0.00
Comm    | 0          | 0          | 0          |   0.0 |  0.00
Output  | 0          | 0          | 0          |   0.0 |  0.00
Modify  | 0          | 0          | 0          |   0.0 |  0.00
Other   |            | 9.64e-07   |            |       |100.00

Nlocal:             48 ave          48 max          48 min
Histogram: 1 0 0 0 0 0 0 0 0 0
Nghost:            478 ave         478 max         478 min
Histogram: 1 0 0 0 0 0 0 0 0 0
Neighs:           1384 ave        1384 max        1384 min
Histogram: 1 0 0 0 0 0 0 0 0 0
FullNghs:         2768 ave        2768 max        2768 min
Histogram: 1 0 0 0 0 0 0 0 0 0

Total # of neighbors = 2768
Ave neighs/atom = 57.666667
Neighbor list builds = 0
Dangerous builds = 0
Total wall time: 0:00:00
