LAMMPS (22 Jul 2025 - Update 4)
OMP_NUM_THREADS environment is not set. Defaulting to 1 thread.
  using 1 OpenMP thread(s) per MPI task
# Compute elastic constant tensor for a crystal
#
# Written by Aidan Thompson (Sandia, athomps@sandia.gov)
#
#  This script uses the following three include files.
#
#   init.mod      (must be modified for different crystal structures)
# 	       	  Define units, deformation parameters and initial
#		  configuration of the atoms and simulation cell.
#
#
#   potential.mod    (must be modified for different pair styles)
# 		     Define pair style and other attributes
#		     not stored in restart file
#
#
#   displace.mod    (displace.mod should not need to be modified)
# 		    Perform positive and negative box displacements
# 		    in direction ${dir} and size ${up}.
# 		    It uses the resultant changes
#		    in stress to compute one
# 		    row of the elastic stiffness tensor
#
#		    Inputs variables:
#		    	   dir = the Voigt deformation component
#		    		    (1,2,3,4,5,6)
#		    Global constants:
#       	    	   up = the deformation magnitude (strain units)
#       		   cfac = conversion from LAMMPS pressure units to
#               	   output units for elastic constants
#
#
#  To run this on a different system, it should only be necessary to
#  modify the files init.mod and potential.mod. In order to calculate
#  the elastic constants correctly, care must be taken to specify
#  the correct units in init.mod (units, cfac and cunits). It is also
#  important to verify that the minimization of energy w.r.t atom
#  positions in the deformed cell is fully converged.
#  One indication of this is that the elastic constants are insensitive
#  to the choice of the variable ${up} in init.mod. Another is to check
#  the final max and two-norm forces reported in the log file. If you know
#  that minimization is not required, you can set maxiter = 0.0 in
#  init.mod.
#

include init.mod
# beta-Sn (white tin, A5 prototype, I4_1/amd) for Ko 2018 MEAM
# 4-atom conventional tetragonal cell

variable up equal 1.0e-4
variable atomjiggle equal 1.0e-5

units		metal
variable cfac equal 1.0e-4
variable cunits string GPa

variable etol equal 0.0
variable ftol equal 1.0e-10
variable maxiter equal 200
variable maxeval equal 2000
variable dmax equal 1.0e-2

# Initial guess from NIST IPR (Ko 2018 predictions)
variable a equal 5.8589
variable c equal 3.2059

boundary	p p p

lattice custom 1.0   a1 ${a} 0.0 0.0   a2 0.0 ${a} 0.0   a3 0.0 0.0 ${c}   basis 0.0 0.0 0.0   basis 0.5 0.5 0.5   basis 0.0 0.5 0.25   basis 0.5 0.0 0.75
lattice custom 1.0   a1 5.8589 0.0 0.0   a2 0.0 ${a} 0.0   a3 0.0 0.0 ${c}   basis 0.0 0.0 0.0   basis 0.5 0.5 0.5   basis 0.0 0.5 0.25   basis 0.5 0.0 0.75
lattice custom 1.0   a1 5.8589 0.0 0.0   a2 0.0 5.8589 0.0   a3 0.0 0.0 ${c}   basis 0.0 0.0 0.0   basis 0.5 0.5 0.5   basis 0.0 0.5 0.25   basis 0.5 0.0 0.75
lattice custom 1.0   a1 5.8589 0.0 0.0   a2 0.0 5.8589 0.0   a3 0.0 0.0 3.2059   basis 0.0 0.0 0.0   basis 0.5 0.5 0.5   basis 0.0 0.5 0.25   basis 0.5 0.0 0.75
Lattice spacing in x,y,z = 5.8589 5.8589 3.2059

region		box prism 0 1 0 1 0 1 0.0 0.0 0.0
create_box	1 box
Created triclinic box = (0 0 0) to (5.8589 5.8589 3.2059) with tilt (0 0 0)
  1 by 1 by 1 MPI processor grid
create_atoms	1 box
Created 4 atoms
  using lattice units in triclinic box = (0 0 0) to (5.8589 5.8589 3.2059) with tilt (0 0 0)
  create_atoms CPU = 0.000 seconds

mass 1 118.71
include potential.mod
# Ko 2018 MEAM potential for Sn (NIST IPR id: 2018--Ko-W-S-Kim-D-H-Kwon-Y-J-Lee-M--Sn)

variable POTDIR string "<PROJECT_ROOT>/meam_potentials"

pair_style	meam
pair_coeff	* * ${POTDIR}/library.Sn.Ko2018.meam Sn ${POTDIR}/Sn.Ko2018.meam Sn
pair_coeff	* * <PROJECT_ROOT>/meam_potentials/library.Sn.Ko2018.meam Sn ${POTDIR}/Sn.Ko2018.meam Sn
pair_coeff	* * <PROJECT_ROOT>/meam_potentials/library.Sn.Ko2018.meam Sn <PROJECT_ROOT>/meam_potentials/Sn.Ko2018.meam Sn

neighbor 1.0 bin
neigh_modify once no every 1 delay 0 check yes

min_style	     cg
min_modify	     dmax ${dmax} line quadratic
min_modify	     dmax 0.01 line quadratic

thermo		1
thermo_style custom step temp pe press pxx pyy pzz pxy pxz pyz lx ly lz vol
thermo_modify norm no

# Compute initial state
fix 3 all box/relax  aniso 0.0
minimize ${etol} ${ftol} ${maxiter} ${maxeval}
minimize 0 ${ftol} ${maxiter} ${maxeval}
minimize 0 1e-10 ${maxiter} ${maxeval}
minimize 0 1e-10 200 ${maxeval}
minimize 0 1e-10 200 2000
Neighbor list info ...
  update: every = 1 steps, delay = 0 steps, check = yes
  max neighbors/atom: 2000, page size: 100000
  master list distance cutoff = 6
  ghost atom cutoff = 6
  binsize = 3, bins = 2 2 2
  2 neighbor lists, perpetual/occasional/extra = 2 0 0
  (1) pair meam, perpetual
      attributes: full, newton on
      pair build: full/bin/atomonly
      stencil: full/bin/3d
      bin: standard
  (2) pair meam, perpetual, half/full from (1)
      attributes: half, newton on
      pair build: halffull/newton/tri
      stencil: none
      bin: none
WARNING: Energy due to 3 extra global DOFs will be included in minimizer energies
 (src/min.cpp:222)
Per MPI rank memory allocation (min/avg/max) = 9.617 | 9.617 | 9.617 Mbytes
   Step          Temp          PotEng         Press           Pxx            Pyy            Pzz            Pxy            Pxz            Pyz             Lx             Ly             Lz           Volume    
         0   0             -12.4078       -2.5322678     -3.3733963     -3.3733963     -0.8500107      3.5818613e-14 -3.4662252e-13 -4.2705991e-13  5.8589         5.8589         3.2059         110.048      
         1   0             -12.4078        0.32181345    -0.16504377    -0.16504377     1.2955279      1.0925251e-13 -1.0074454e-12 -9.6665635e-12  5.8588871      5.8588871      3.2058982      110.04745    
         2   0             -12.4078       -0.0019682388  -0.001845031   -0.0018450315  -0.002214654   -9.2921708e-14  4.9114194e-13  1.6089901e-12  5.8588834      5.8588834      3.2059042      110.04752    
         3   0             -12.4078       -0.00022635609  0.00011354835  0.00011354817 -0.00090616479  8.8207067e-14 -3.1178155e-12 -2.852391e-12   5.8588834      5.8588834      3.2059042      110.04752    
         4   0             -12.4078        0.00025997198  0.00034653477  0.00034653503  8.6846147e-05 -4.8473474e-14 -1.2228172e-12  3.0744799e-12  5.8588834      5.8588834      3.2059042      110.04752    
         5   0             -12.4078       -2.9291385e-10 -1.0971038e-10 -1.0147329e-10 -6.6755786e-10 -1.1026951e-14  4.162919e-12  -2.148346e-12   5.8588834      5.8588834      3.2059042      110.04752    
Loop time of 0.000650356 on 1 procs for 5 steps with 4 atoms

35.8% CPU use with 1 MPI tasks x 1 OpenMP threads

Minimization stats:
  Stopping criterion = force tolerance
  Energy initial, next-to-last, final = 
     -12.4077998203725  -12.4077998209898  -12.4077998209898
  Force two-norm initial, final = 0.0003328438 4.6988164e-14
  Force max component initial, final = 0.000231707 4.5851996e-14
  Final line search alpha, max atom move = 1 4.5851996e-14
  Iterations, force evaluations = 5 10

MPI task timing breakdown:
Section |  min time  |  avg time  |  max time  |%varavg| %total
---------------------------------------------------------------
Pair    | 0.00052507 | 0.00052507 | 0.00052507 |   0.0 | 80.74
Neigh   | 0          | 0          | 0          |   0.0 |  0.00
Comm    | 1.4134e-05 | 1.4134e-05 | 1.4134e-05 |   0.0 |  2.17
Output  | 5.0132e-05 | 5.0132e-05 | 5.0132e-05 |   0.0 |  7.71
Modify  | 0          | 0          | 0          |   0.0 |  0.00
Other   |            | 6.102e-05  |            |       |  9.38

Nlocal:              4 ave           4 max           4 min
Histogram: 1 0 0 0 0 0 0 0 0 0
Nghost:            225 ave         225 max         225 min
Histogram: 1 0 0 0 0 0 0 0 0 0
Neighs:             52 ave          52 max          52 min
Histogram: 1 0 0 0 0 0 0 0 0 0
FullNghs:          104 ave         104 max         104 min
Histogram: 1 0 0 0 0 0 0 0 0 0

Total # of neighbors = 104
Ave neighs/atom = 26
Neighbor list builds = 0
Dangerous builds = 0

variable tmp equal pxx
variable pxx0 equal ${tmp}
variable pxx0 equal -1.09710380381989e-10
variable tmp equal pyy
variable pyy0 equal ${tmp}
variable pyy0 equal -1.01473293360239e-10
variable tmp equal pzz
variable pzz0 equal ${tmp}
variable pzz0 equal -6.67557863443338e-10
variable tmp equal pyz
variable pyz0 equal ${tmp}
variable pyz0 equal -2.14834598618855e-12
variable tmp equal pxz
variable pxz0 equal ${tmp}
variable pxz0 equal 4.16291899108445e-12
variable tmp equal pxy
variable pxy0 equal ${tmp}
variable pxy0 equal -1.10269507492876e-14

variable tmp equal lx
variable lx0 equal ${tmp}
variable lx0 equal 5.85888341444202
variable tmp equal ly
variable ly0 equal ${tmp}
variable ly0 equal 5.85888341444202
variable tmp equal lz
variable lz0 equal ${tmp}
variable lz0 equal 3.20590424121512

# These formulas define the derivatives w.r.t. strain components
# Constants uses $, variables use v_
variable d1 equal -(v_pxx1-${pxx0})/(v_delta/v_len0)*${cfac}
variable d1 equal -(v_pxx1--1.09710380381989e-10)/(v_delta/v_len0)*${cfac}
variable d1 equal -(v_pxx1--1.09710380381989e-10)/(v_delta/v_len0)*0.0001
variable d2 equal -(v_pyy1-${pyy0})/(v_delta/v_len0)*${cfac}
variable d2 equal -(v_pyy1--1.01473293360239e-10)/(v_delta/v_len0)*${cfac}
variable d2 equal -(v_pyy1--1.01473293360239e-10)/(v_delta/v_len0)*0.0001
variable d3 equal -(v_pzz1-${pzz0})/(v_delta/v_len0)*${cfac}
variable d3 equal -(v_pzz1--6.67557863443338e-10)/(v_delta/v_len0)*${cfac}
variable d3 equal -(v_pzz1--6.67557863443338e-10)/(v_delta/v_len0)*0.0001
variable d4 equal -(v_pyz1-${pyz0})/(v_delta/v_len0)*${cfac}
variable d4 equal -(v_pyz1--2.14834598618855e-12)/(v_delta/v_len0)*${cfac}
variable d4 equal -(v_pyz1--2.14834598618855e-12)/(v_delta/v_len0)*0.0001
variable d5 equal -(v_pxz1-${pxz0})/(v_delta/v_len0)*${cfac}
variable d5 equal -(v_pxz1-4.16291899108445e-12)/(v_delta/v_len0)*${cfac}
variable d5 equal -(v_pxz1-4.16291899108445e-12)/(v_delta/v_len0)*0.0001
variable d6 equal -(v_pxy1-${pxy0})/(v_delta/v_len0)*${cfac}
variable d6 equal -(v_pxy1--1.10269507492876e-14)/(v_delta/v_len0)*${cfac}
variable d6 equal -(v_pxy1--1.10269507492876e-14)/(v_delta/v_len0)*0.0001

displace_atoms all random ${atomjiggle} ${atomjiggle} ${atomjiggle} 87287 units box
displace_atoms all random 1e-05 ${atomjiggle} ${atomjiggle} 87287 units box
displace_atoms all random 1e-05 1e-05 ${atomjiggle} 87287 units box
displace_atoms all random 1e-05 1e-05 1e-05 87287 units box
Displacing atoms ...

# Write restart
unfix 3
write_restart restart.equil
System init for write_restart ...

# uxx Perturbation

variable dir equal 1
include displace.mod
# NOTE: This script should not need to be
# modified. See in.elastic for more info.
#
# Find which reference length to use

if "${dir} == 1" then    "variable len0 equal ${lx0}"
variable len0 equal ${lx0}
variable len0 equal 5.85888341444202
if "${dir} == 2" then    "variable len0 equal ${ly0}"
if "${dir} == 3" then    "variable len0 equal ${lz0}"
if "${dir} == 4" then    "variable len0 equal ${lz0}"
if "${dir} == 5" then    "variable len0 equal ${lz0}"
if "${dir} == 6" then    "variable len0 equal ${ly0}"

# Reset box and simulation parameters

clear
OMP_NUM_THREADS environment is not set. Defaulting to 1 thread.
  using 1 OpenMP thread(s) per MPI task
box tilt large

The 'box' command has been removed and will be ignored

read_restart restart.equil
Reading restart file ...
  restart file = 22 Jul 2025, LAMMPS = 22 Jul 2025
  restoring atom style atomic from restart
  triclinic box = (8.292779e-06 8.292779e-06 -2.1206076e-06) to (5.8588917 5.8588917 3.2059021) with tilt (0 0 0)
  1 by 1 by 1 MPI processor grid
  pair style meam stores no restart info
  4 atoms
  read_restart CPU = 0.000 seconds
include potential.mod
# Ko 2018 MEAM potential for Sn (NIST IPR id: 2018--Ko-W-S-Kim-D-H-Kwon-Y-J-Lee-M--Sn)

variable POTDIR string "<PROJECT_ROOT>/meam_potentials"

pair_style	meam
pair_coeff	* * ${POTDIR}/library.Sn.Ko2018.meam Sn ${POTDIR}/Sn.Ko2018.meam Sn
pair_coeff	* * <PROJECT_ROOT>/meam_potentials/library.Sn.Ko2018.meam Sn ${POTDIR}/Sn.Ko2018.meam Sn
pair_coeff	* * <PROJECT_ROOT>/meam_potentials/library.Sn.Ko2018.meam Sn <PROJECT_ROOT>/meam_potentials/Sn.Ko2018.meam Sn

neighbor 1.0 bin
neigh_modify once no every 1 delay 0 check yes

min_style	     cg
min_modify	     dmax ${dmax} line quadratic
min_modify	     dmax 0.01 line quadratic

thermo		1
thermo_style custom step temp pe press pxx pyy pzz pxy pxz pyz lx ly lz vol
thermo_modify norm no

# Negative deformation

variable delta equal -${up}*${len0}
variable delta equal -0.0001*${len0}
variable delta equal -0.0001*5.85888341444202
variable deltaxy equal -${up}*xy
variable deltaxy equal -0.0001*xy
variable deltaxz equal -${up}*xz
variable deltaxz equal -0.0001*xz
variable deltayz equal -${up}*yz
variable deltayz equal -0.0001*yz
if "${dir} == 1" then    "change_box all x delta 0 ${delta} xy delta ${deltaxy} xz delta ${deltaxz} remap units box"
change_box all x delta 0 ${delta} xy delta ${deltaxy} xz delta ${deltaxz} remap units box
change_box all x delta 0 -0.000585888341444202 xy delta ${deltaxy} xz delta ${deltaxz} remap units box
change_box all x delta 0 -0.000585888341444202 xy delta 0 xz delta ${deltaxz} remap units box
change_box all x delta 0 -0.000585888341444202 xy delta 0 xz delta 0 remap units box
Changing box ...
  triclinic box = (8.292779e-06 8.292779e-06 -2.1206076e-06) to (5.8583058 5.8588917 3.2059021) with tilt (0 0 0)
  triclinic box = (8.292779e-06 8.292779e-06 -2.1206076e-06) to (5.8583058 5.8588917 3.2059021) with tilt (0 0 0)
  triclinic box = (8.292779e-06 8.292779e-06 -2.1206076e-06) to (5.8583058 5.8588917 3.2059021) with tilt (0 0 0)
if "${dir} == 2" then    "change_box all y delta 0 ${delta} yz delta ${deltayz} remap units box"
if "${dir} == 3" then    "change_box all z delta 0 ${delta} remap units box"
if "${dir} == 4" then    "change_box all yz delta ${delta} remap units box"
if "${dir} == 5" then    "change_box all xz delta ${delta} remap units box"
if "${dir} == 6" then    "change_box all xy delta ${delta} remap units box"

# Relax atoms positions

minimize ${etol} ${ftol} ${maxiter} ${maxeval}
minimize 0 ${ftol} ${maxiter} ${maxeval}
minimize 0 1e-10 ${maxiter} ${maxeval}
minimize 0 1e-10 200 ${maxeval}
minimize 0 1e-10 200 2000
Neighbor list info ...
  update: every = 1 steps, delay = 0 steps, check = yes
  max neighbors/atom: 2000, page size: 100000
  master list distance cutoff = 6
  ghost atom cutoff = 6
  binsize = 3, bins = 2 2 2
  2 neighbor lists, perpetual/occasional/extra = 2 0 0
  (1) pair meam, perpetual
      attributes: full, newton on
      pair build: full/bin/atomonly
      stencil: full/bin/3d
      bin: standard
  (2) pair meam, perpetual, half/full from (1)
      attributes: half, newton on
      pair build: halffull/newton/tri
      stencil: none
      bin: none
Per MPI rank memory allocation (min/avg/max) = 9.617 | 9.617 | 9.617 Mbytes
   Step          Temp          PotEng         Press           Pxx            Pyy            Pzz            Pxy            Pxz            Pyz             Lx             Ly             Lz           Volume    
         5   0             -12.407799      57.809012      119.89584      16.601179      36.930018     -9.0143838e-07  0.15160206    -0.31521286     5.8582975      5.8588834      3.2059042      110.03651    
         6   0             -12.4078        57.803418      90.156922      46.318351      36.934981     -6.8894768e-06 -0.14651953     0.30306772     5.8582975      5.8588834      3.2059042      110.03651    
         7   0             -12.4078        57.803367      89.788388      46.686685      36.935027      1.8706789e-07 -0.0220708      0.045920582    5.8582975      5.8588834      3.2059042      110.03651    
         8   0             -12.4078        57.803366      89.780786      46.694284      36.935028     -4.8806611e-08  0.0056923388  -0.011757909    5.8582975      5.8588834      3.2059042      110.03651    
         9   0             -12.4078        57.803366      89.787207      46.687864      36.935027      8.7368912e-10 -0.000136796    0.00011678248  5.8582975      5.8588834      3.2059042      110.03651    
        10   0             -12.4078        57.803366      89.787501      46.68757       36.935027     -1.9179768e-09  0.00019979148  0.00028134117  5.8582975      5.8588834      3.2059042      110.03651    
        11   0             -12.4078        57.803367      89.7866        46.688472      36.935028      9.6794635e-09 -0.00084861167 -0.0011934298   5.8582975      5.8588834      3.2059042      110.03651    
        12   0             -12.4078        57.803367      89.786684      46.688388      36.935028     -1.3779839e-08  0.00077446261  0.0010853455   5.8582975      5.8588834      3.2059042      110.03651    
        13   0             -12.4078        57.803368      89.787717      46.687358      36.935028     -7.8091279e-09  0.0032759591   0.0046073152   5.8582975      5.8588834      3.2059042      110.03651    
        14   0             -12.4078        57.803368      89.787925      46.687149      36.935028      1.9431622e-10  0.0011352574   0.0016031495   5.8582975      5.8588834      3.2059042      110.03651    
        15   0             -12.4078        57.803368      89.787289      46.687785      36.935029      7.8307757e-11 -0.00090142529 -0.0012691774   5.8582975      5.8588834      3.2059042      110.03651    
        16   0             -12.4078        57.803368      89.78689       46.688184      36.935029     -3.6471464e-12  2.6514856e-05  3.2787994e-05  5.8582975      5.8588834      3.2059042      110.03651    
        17   0             -12.4078        57.803368      89.787001      46.688073      36.935029      1.9710185e-14  4.864428e-06   6.0419882e-06  5.8582975      5.8588834      3.2059042      110.03651    
        18   0             -12.4078        57.803368      89.787223      46.687852      36.935029     -4.0342352e-14 -9.2806703e-06 -1.1503737e-05  5.8582975      5.8588834      3.2059042      110.03651    
        19   0             -12.4078        57.803368      89.787267      46.687807      36.935029      2.2988423e-14  1.8306128e-05  2.2633728e-05  5.8582975      5.8588834      3.2059042      110.03651    
        20   0             -12.4078        57.803368      89.787267      46.687807      36.935029      2.2988423e-14  1.8306128e-05  2.2633728e-05  5.8582975      5.8588834      3.2059042      110.03651    
Loop time of 0.00146787 on 1 procs for 15 steps with 4 atoms

82.0% CPU use with 1 MPI tasks x 1 OpenMP threads

Minimization stats:
  Stopping criterion = linesearch alpha is zero
  Energy initial, next-to-last, final = 
     -12.4077994086865  -12.4077995126752  -12.4077995126752
  Force two-norm initial, final = 0.0007425782 5.8208467e-09
  Force max component initial, final = 0.00037790019 2.9681595e-09
  Final line search alpha, max atom move = 0.5 1.4840797e-09
  Iterations, force evaluations = 15 28

MPI task timing breakdown:
Section |  min time  |  avg time  |  max time  |%varavg| %total
---------------------------------------------------------------
Pair    | 0.0012538  | 0.0012538  | 0.0012538  |   0.0 | 85.42
Neigh   | 0          | 0          | 0          |   0.0 |  0.00
Comm    | 3.5974e-05 | 3.5974e-05 | 3.5974e-05 |   0.0 |  2.45
Output  | 0.00014898 | 0.00014898 | 0.00014898 |   0.0 | 10.15
Modify  | 0          | 0          | 0          |   0.0 |  0.00
Other   |            | 2.91e-05   |            |       |  1.98

Nlocal:              4 ave           4 max           4 min
Histogram: 1 0 0 0 0 0 0 0 0 0
Nghost:            225 ave         225 max         225 min
Histogram: 1 0 0 0 0 0 0 0 0 0
Neighs:             52 ave          52 max          52 min
Histogram: 1 0 0 0 0 0 0 0 0 0
FullNghs:          104 ave         104 max         104 min
Histogram: 1 0 0 0 0 0 0 0 0 0

Total # of neighbors = 104
Ave neighs/atom = 26
Neighbor list builds = 0
Dangerous builds = 0

# Obtain new stress tensor

variable tmp equal pxx
variable pxx1 equal ${tmp}
variable pxx1 equal 89.7872671256142
variable tmp equal pyy
variable pyy1 equal ${tmp}
variable pyy1 equal 46.6878072740984
variable tmp equal pzz
variable pzz1 equal ${tmp}
variable pzz1 equal 36.9350285327026
variable tmp equal pxy
variable pxy1 equal ${tmp}
variable pxy1 equal 2.29884234887076e-14
variable tmp equal pxz
variable pxz1 equal ${tmp}
variable pxz1 equal 1.83061279431891e-05
variable tmp equal pyz
variable pyz1 equal ${tmp}
variable pyz1 equal 2.26337280511499e-05

# Compute elastic constant from pressure tensor

variable C1neg equal ${d1}
variable C1neg equal 89.7872671257239
variable C2neg equal ${d2}
variable C2neg equal 46.6878072741999
variable C3neg equal ${d3}
variable C3neg equal 36.9350285333702
variable C4neg equal ${d4}
variable C4neg equal 2.26337301994959e-05
variable C5neg equal ${d5}
variable C5neg equal 1.83061237802701e-05
variable C6neg equal ${d6}
variable C6neg equal 3.40153742379952e-14

# Reset box and simulation parameters

clear
OMP_NUM_THREADS environment is not set. Defaulting to 1 thread.
  using 1 OpenMP thread(s) per MPI task
box tilt large

The 'box' command has been removed and will be ignored

read_restart restart.equil
Reading restart file ...
  restart file = 22 Jul 2025, LAMMPS = 22 Jul 2025
  restoring atom style atomic from restart
  triclinic box = (8.292779e-06 8.292779e-06 -2.1206076e-06) to (5.8588917 5.8588917 3.2059021) with tilt (0 0 0)
  1 by 1 by 1 MPI processor grid
  pair style meam stores no restart info
  4 atoms
  read_restart CPU = 0.000 seconds
include potential.mod
# Ko 2018 MEAM potential for Sn (NIST IPR id: 2018--Ko-W-S-Kim-D-H-Kwon-Y-J-Lee-M--Sn)

variable POTDIR string "<PROJECT_ROOT>/meam_potentials"

pair_style	meam
pair_coeff	* * ${POTDIR}/library.Sn.Ko2018.meam Sn ${POTDIR}/Sn.Ko2018.meam Sn
pair_coeff	* * <PROJECT_ROOT>/meam_potentials/library.Sn.Ko2018.meam Sn ${POTDIR}/Sn.Ko2018.meam Sn
pair_coeff	* * <PROJECT_ROOT>/meam_potentials/library.Sn.Ko2018.meam Sn <PROJECT_ROOT>/meam_potentials/Sn.Ko2018.meam Sn

neighbor 1.0 bin
neigh_modify once no every 1 delay 0 check yes

min_style	     cg
min_modify	     dmax ${dmax} line quadratic
min_modify	     dmax 0.01 line quadratic

thermo		1
thermo_style custom step temp pe press pxx pyy pzz pxy pxz pyz lx ly lz vol
thermo_modify norm no

# Positive deformation

variable delta equal ${up}*${len0}
variable delta equal 0.0001*${len0}
variable delta equal 0.0001*5.85888341444202
variable deltaxy equal ${up}*xy
variable deltaxy equal 0.0001*xy
variable deltaxz equal ${up}*xz
variable deltaxz equal 0.0001*xz
variable deltayz equal ${up}*yz
variable deltayz equal 0.0001*yz
if "${dir} == 1" then    "change_box all x delta 0 ${delta} xy delta ${deltaxy} xz delta ${deltaxz} remap units box"
change_box all x delta 0 ${delta} xy delta ${deltaxy} xz delta ${deltaxz} remap units box
change_box all x delta 0 0.000585888341444202 xy delta ${deltaxy} xz delta ${deltaxz} remap units box
change_box all x delta 0 0.000585888341444202 xy delta 0 xz delta ${deltaxz} remap units box
change_box all x delta 0 0.000585888341444202 xy delta 0 xz delta 0 remap units box
Changing box ...
  triclinic box = (8.292779e-06 8.292779e-06 -2.1206076e-06) to (5.8594776 5.8588917 3.2059021) with tilt (0 0 0)
  triclinic box = (8.292779e-06 8.292779e-06 -2.1206076e-06) to (5.8594776 5.8588917 3.2059021) with tilt (0 0 0)
  triclinic box = (8.292779e-06 8.292779e-06 -2.1206076e-06) to (5.8594776 5.8588917 3.2059021) with tilt (0 0 0)
if "${dir} == 2" then    "change_box all y delta 0 ${delta} yz delta ${deltayz} remap units box"
if "${dir} == 3" then    "change_box all z delta 0 ${delta} remap units box"
if "${dir} == 4" then    "change_box all yz delta ${delta} remap units box"
if "${dir} == 5" then    "change_box all xz delta ${delta} remap units box"
if "${dir} == 6" then    "change_box all xy delta ${delta} remap units box"

# Relax atoms positions

minimize ${etol} ${ftol} ${maxiter} ${maxeval}
minimize 0 ${ftol} ${maxiter} ${maxeval}
minimize 0 1e-10 ${maxiter} ${maxeval}
minimize 0 1e-10 200 ${maxeval}
minimize 0 1e-10 200 2000
Neighbor list info ...
  update: every = 1 steps, delay = 0 steps, check = yes
  max neighbors/atom: 2000, page size: 100000
  master list distance cutoff = 6
  ghost atom cutoff = 6
  binsize = 3, bins = 2 2 2
  2 neighbor lists, perpetual/occasional/extra = 2 0 0
  (1) pair meam, perpetual
      attributes: full, newton on
      pair build: full/bin/atomonly
      stencil: full/bin/3d
      bin: standard
  (2) pair meam, perpetual, half/full from (1)
      attributes: half, newton on
      pair build: halffull/newton/tri
      stencil: none
      bin: none
Per MPI rank memory allocation (min/avg/max) = 9.617 | 9.617 | 9.617 Mbytes
   Step          Temp          PotEng         Press           Pxx            Pyy            Pzz            Pxy            Pxz            Pyz             Lx             Ly             Lz           Volume    
         5   0             -12.407799     -57.74749      -119.72063     -16.621769     -36.900072     -9.0164341e-07  0.15082497    -0.31496533     5.8594693      5.8588834      3.2059042      110.05852    
         6   0             -12.4078       -57.753074     -90.081851     -46.282251     -36.895119     -6.8560972e-06 -0.14486605     0.3041136      5.8594693      5.8588834      3.2059042      110.05852    
         7   0             -12.4078       -57.753125     -89.713351     -46.650952     -36.895073      1.8526481e-07 -0.021957455    0.045815801    5.8594693      5.8588834      3.2059042      110.05852    
         8   0             -12.4078       -57.753126     -89.706158     -46.658149     -36.895072     -4.8230953e-08  0.0056172971  -0.01180865     5.8594693      5.8588834      3.2059042      110.05852    
         9   0             -12.4078       -57.753126     -89.713153     -46.651153     -36.895073      2.7910344e-11 -6.7696563e-06  0.00018215927  5.8594693      5.8588834      3.2059042      110.05852    
        10   0             -12.4078       -57.753126     -89.712729     -46.651576     -36.895073      2.2305446e-09 -0.00034465682  2.3911739e-05  5.8594693      5.8588834      3.2059042      110.05852    
        11   0             -12.4078       -57.753125     -89.712956     -46.651348     -36.895072     -1.108804e-08   0.0014591189  -0.00010126412  5.8594693      5.8588834      3.2059042      110.05852    
        12   0             -12.4078       -57.753125     -89.712931     -46.651373     -36.895072      1.5923677e-08 -0.0013421548   9.3426778e-05  5.8594693      5.8588834      3.2059042      110.05852    
        13   0             -12.4078       -57.753124     -89.712661     -46.651641     -36.895072      1.0108935e-08 -0.005688197    0.0003946596   5.8594693      5.8588834      3.2059042      110.05852    
        14   0             -12.4078       -57.753124     -89.71261      -46.651692     -36.895072     -6.9921526e-11 -0.0019823872   0.00013698494  5.8594693      5.8588834      3.2059042      110.05852    
        15   0             -12.4078       -57.753124     -89.712776     -46.651526     -36.895072     -9.5302174e-12  0.0014879747  -0.00010313523  5.8594693      5.8588834      3.2059042      110.05852    
        16   0             -12.4078       -57.753124     -89.712886     -46.651415     -36.895072      1.2178254e-12 -4.2986275e-05  3.3693211e-06  5.8594693      5.8588834      3.2059042      110.05852    
        17   0             -12.4078       -57.753124     -89.712857     -46.651445     -36.895072     -7.7673125e-14 -8.3739476e-06  6.5363934e-07  5.8594693      5.8588834      3.2059042      110.05852    
        18   0             -12.4078       -57.753124     -89.712769     -46.651533     -36.895072      4.633743e-14   2.6301376e-05 -2.0561111e-06  5.8594693      5.8588834      3.2059042      110.05852    
        19   0             -12.4078       -57.753124     -89.71272      -46.651581     -36.895072      9.0763204e-15 -1.415426e-05   1.1149234e-06  5.8594693      5.8588834      3.2059042      110.05852    
        20   0             -12.4078       -57.753124     -89.71272      -46.651581     -36.895072      9.0763204e-15 -1.415426e-05   1.1149234e-06  5.8594693      5.8588834      3.2059042      110.05852    
Loop time of 0.00144391 on 1 procs for 15 steps with 4 atoms

100.1% CPU use with 1 MPI tasks x 1 OpenMP threads

Minimization stats:
  Stopping criterion = linesearch alpha is zero
  Energy initial, next-to-last, final = 
     -12.4077994092087  -12.4077995128454  -12.4077995128454
  Force two-norm initial, final = 0.00074088567 4.943384e-09
  Force max component initial, final = 0.00037703585 2.7478874e-09
  Final line search alpha, max atom move = 0.5 1.3739437e-09
  Iterations, force evaluations = 15 28

MPI task timing breakdown:
Section |  min time  |  avg time  |  max time  |%varavg| %total
---------------------------------------------------------------
Pair    | 0.0012126  | 0.0012126  | 0.0012126  |   0.0 | 83.98
Neigh   | 0          | 0          | 0          |   0.0 |  0.00
Comm    | 5.3408e-05 | 5.3408e-05 | 5.3408e-05 |   0.0 |  3.70
Output  | 0.00014942 | 0.00014942 | 0.00014942 |   0.0 | 10.35
Modify  | 0          | 0          | 0          |   0.0 |  0.00
Other   |            | 2.846e-05  |            |       |  1.97

Nlocal:              4 ave           4 max           4 min
Histogram: 1 0 0 0 0 0 0 0 0 0
Nghost:            225 ave         225 max         225 min
Histogram: 1 0 0 0 0 0 0 0 0 0
Neighs:             52 ave          52 max          52 min
Histogram: 1 0 0 0 0 0 0 0 0 0
FullNghs:          104 ave         104 max         104 min
Histogram: 1 0 0 0 0 0 0 0 0 0

Total # of neighbors = 104
Ave neighs/atom = 26
Neighbor list builds = 0
Dangerous builds = 0

# Obtain new stress tensor

variable tmp equal pe
variable e1 equal ${tmp}
variable e1 equal -12.4077995128454
variable tmp equal press
variable p1 equal ${tmp}
variable p1 equal -57.7531243887995
variable tmp equal pxx
variable pxx1 equal ${tmp}
variable pxx1 equal -89.7127202232409
variable tmp equal pyy
variable pyy1 equal ${tmp}
variable pyy1 equal -46.6515813983328
variable tmp equal pzz
variable pzz1 equal ${tmp}
variable pzz1 equal -36.8950715448247
variable tmp equal pxy
variable pxy1 equal ${tmp}
variable pxy1 equal 9.07632036327212e-15
variable tmp equal pxz
variable pxz1 equal ${tmp}
variable pxz1 equal -1.41542601575403e-05
variable tmp equal pyz
variable pyz1 equal ${tmp}
variable pyz1 equal 1.11492344169666e-06

# Compute elastic constant from pressure tensor

variable C1pos equal ${d1}
variable C1pos equal 89.7127202231312
variable C2pos equal ${d2}
variable C2pos equal 46.6515813982313
variable C3pos equal ${d3}
variable C3pos equal 36.8950715441571
variable C4pos equal ${d4}
variable C4pos equal -1.11492559004265e-06
variable C5pos equal ${d5}
variable C5pos equal 1.41542643204593e-05
variable C6pos equal ${d6}
variable C6pos equal -2.01032711125597e-14

# Combine positive and negative

variable C1${dir} equal 0.5*(${C1neg}+${C1pos})
variable C11 equal 0.5*(${C1neg}+${C1pos})
variable C11 equal 0.5*(89.7872671257239+${C1pos})
variable C11 equal 0.5*(89.7872671257239+89.7127202231312)
variable C2${dir} equal 0.5*(${C2neg}+${C2pos})
variable C21 equal 0.5*(${C2neg}+${C2pos})
variable C21 equal 0.5*(46.6878072741999+${C2pos})
variable C21 equal 0.5*(46.6878072741999+46.6515813982313)
variable C3${dir} equal 0.5*(${C3neg}+${C3pos})
variable C31 equal 0.5*(${C3neg}+${C3pos})
variable C31 equal 0.5*(36.9350285333702+${C3pos})
variable C31 equal 0.5*(36.9350285333702+36.8950715441571)
variable C4${dir} equal 0.5*(${C4neg}+${C4pos})
variable C41 equal 0.5*(${C4neg}+${C4pos})
variable C41 equal 0.5*(2.26337301994959e-05+${C4pos})
variable C41 equal 0.5*(2.26337301994959e-05+-1.11492559004265e-06)
variable C5${dir} equal 0.5*(${C5neg}+${C5pos})
variable C51 equal 0.5*(${C5neg}+${C5pos})
variable C51 equal 0.5*(1.83061237802701e-05+${C5pos})
variable C51 equal 0.5*(1.83061237802701e-05+1.41542643204593e-05)
variable C6${dir} equal 0.5*(${C6neg}+${C6pos})
variable C61 equal 0.5*(${C6neg}+${C6pos})
variable C61 equal 0.5*(3.40153742379952e-14+${C6pos})
variable C61 equal 0.5*(3.40153742379952e-14+-2.01032711125597e-14)

# Delete dir to make sure it is not reused

variable dir delete

# uyy Perturbation

variable dir equal 2
include displace.mod
# NOTE: This script should not need to be
# modified. See in.elastic for more info.
#
# Find which reference length to use

if "${dir} == 1" then    "variable len0 equal ${lx0}"
if "${dir} == 2" then    "variable len0 equal ${ly0}"
variable len0 equal ${ly0}
variable len0 equal 5.85888341444202
if "${dir} == 3" then    "variable len0 equal ${lz0}"
if "${dir} == 4" then    "variable len0 equal ${lz0}"
if "${dir} == 5" then    "variable len0 equal ${lz0}"
if "${dir} == 6" then    "variable len0 equal ${ly0}"

# Reset box and simulation parameters

clear
OMP_NUM_THREADS environment is not set. Defaulting to 1 thread.
  using 1 OpenMP thread(s) per MPI task
box tilt large

The 'box' command has been removed and will be ignored

read_restart restart.equil
Reading restart file ...
  restart file = 22 Jul 2025, LAMMPS = 22 Jul 2025
  restoring atom style atomic from restart
  triclinic box = (8.292779e-06 8.292779e-06 -2.1206076e-06) to (5.8588917 5.8588917 3.2059021) with tilt (0 0 0)
  1 by 1 by 1 MPI processor grid
  pair style meam stores no restart info
  4 atoms
  read_restart CPU = 0.000 seconds
include potential.mod
# Ko 2018 MEAM potential for Sn (NIST IPR id: 2018--Ko-W-S-Kim-D-H-Kwon-Y-J-Lee-M--Sn)

variable POTDIR string "<PROJECT_ROOT>/meam_potentials"

pair_style	meam
pair_coeff	* * ${POTDIR}/library.Sn.Ko2018.meam Sn ${POTDIR}/Sn.Ko2018.meam Sn
pair_coeff	* * <PROJECT_ROOT>/meam_potentials/library.Sn.Ko2018.meam Sn ${POTDIR}/Sn.Ko2018.meam Sn
pair_coeff	* * <PROJECT_ROOT>/meam_potentials/library.Sn.Ko2018.meam Sn <PROJECT_ROOT>/meam_potentials/Sn.Ko2018.meam Sn

neighbor 1.0 bin
neigh_modify once no every 1 delay 0 check yes

min_style	     cg
min_modify	     dmax ${dmax} line quadratic
min_modify	     dmax 0.01 line quadratic

thermo		1
thermo_style custom step temp pe press pxx pyy pzz pxy pxz pyz lx ly lz vol
thermo_modify norm no

# Negative deformation

variable delta equal -${up}*${len0}
variable delta equal -0.0001*${len0}
variable delta equal -0.0001*5.85888341444202
variable deltaxy equal -${up}*xy
variable deltaxy equal -0.0001*xy
variable deltaxz equal -${up}*xz
variable deltaxz equal -0.0001*xz
variable deltayz equal -${up}*yz
variable deltayz equal -0.0001*yz
if "${dir} == 1" then    "change_box all x delta 0 ${delta} xy delta ${deltaxy} xz delta ${deltaxz} remap units box"
if "${dir} == 2" then    "change_box all y delta 0 ${delta} yz delta ${deltayz} remap units box"
change_box all y delta 0 ${delta} yz delta ${deltayz} remap units box
change_box all y delta 0 -0.000585888341444202 yz delta ${deltayz} remap units box
change_box all y delta 0 -0.000585888341444202 yz delta 0 remap units box
Changing box ...
  triclinic box = (8.292779e-06 8.292779e-06 -2.1206076e-06) to (5.8588917 5.8583058 3.2059021) with tilt (0 0 0)
  triclinic box = (8.292779e-06 8.292779e-06 -2.1206076e-06) to (5.8588917 5.8583058 3.2059021) with tilt (0 0 0)
if "${dir} == 3" then    "change_box all z delta 0 ${delta} remap units box"
if "${dir} == 4" then    "change_box all yz delta ${delta} remap units box"
if "${dir} == 5" then    "change_box all xz delta ${delta} remap units box"
if "${dir} == 6" then    "change_box all xy delta ${delta} remap units box"

# Relax atoms positions

minimize ${etol} ${ftol} ${maxiter} ${maxeval}
minimize 0 ${ftol} ${maxiter} ${maxeval}
minimize 0 1e-10 ${maxiter} ${maxeval}
minimize 0 1e-10 200 ${maxeval}
minimize 0 1e-10 200 2000
Neighbor list info ...
  update: every = 1 steps, delay = 0 steps, check = yes
  max neighbors/atom: 2000, page size: 100000
  master list distance cutoff = 6
  ghost atom cutoff = 6
  binsize = 3, bins = 2 2 2
  2 neighbor lists, perpetual/occasional/extra = 2 0 0
  (1) pair meam, perpetual
      attributes: full, newton on
      pair build: full/bin/atomonly
      stencil: full/bin/3d
      bin: standard
  (2) pair meam, perpetual, half/full from (1)
      attributes: half, newton on
      pair build: halffull/newton/tri
      stencil: none
      bin: none
Per MPI rank memory allocation (min/avg/max) = 9.617 | 9.617 | 9.617 Mbytes
   Step          Temp          PotEng         Press           Pxx            Pyy            Pzz            Pxy            Pxz            Pyz             Lx             Ly             Lz           Volume    
         5   0             -12.407799      57.809002      16.627483      119.8695       36.930021     -9.0334653e-07  0.15127282    -0.3158989      5.8588834      5.8582975      3.2059042      110.03651    
         6   0             -12.4078        57.803418      46.317803      90.157471      36.934981     -6.8851816e-06 -0.14543217     0.3052982      5.8588834      5.8582975      3.2059042      110.03651    
         7   0             -12.4078        57.803367      46.687364      89.787709      36.935027      1.8604593e-07 -0.022043479    0.045995026    5.8588834      5.8582975      3.2059042      110.03651    
         8   0             -12.4078        57.803366      46.694577      89.780493      36.935028     -4.8325187e-08  0.0056248289  -0.01182448     5.8588834      5.8582975      3.2059042      110.03651    
         9   0             -12.4078        57.803366      46.687576      89.787494      36.935027      2.0577872e-11 -5.4082058e-06  0.00017970399  5.8588834      5.8582975      3.2059042      110.03651    
        10   0             -12.4078        57.803366      46.688002      89.787069      36.935028      2.2397043e-09 -0.0003450259   2.1364575e-05  5.8588834      5.8582975      3.2059042      110.03651    
        11   0             -12.4078        57.803367      46.687763      89.787309      36.935028     -1.1165571e-08  0.0014636874  -9.0654349e-05  5.8588834      5.8582975      3.2059042      110.03651    
        12   0             -12.4078        57.803367      46.687787      89.787286      36.935028      1.5987022e-08 -0.0013342846   8.2888169e-05  5.8588834      5.8582975      3.2059042      110.03651    
        13   0             -12.4078        57.803368      46.688063      89.787012      36.935029      1.0108706e-08 -0.0056594462   0.00035042358  5.8588834      5.8582975      3.2059042      110.03651    
        14   0             -12.4078        57.803368      46.688118      89.786957      36.935029     -6.9680473e-11 -0.0019698796   0.00012147717  5.8588834      5.8582975      3.2059042      110.03651    
        15   0             -12.4078        57.803368      46.687948      89.787126      36.935029     -8.8905317e-12  0.0015393088  -9.5210462e-05  5.8588834      5.8582975      3.2059042      110.03651    
        16   0             -12.4078        57.803368      46.68784       89.787234      36.935029      1.2486727e-12 -4.203788e-05   2.9465483e-06  5.8588834      5.8582975      3.2059042      110.03651    
        17   0             -12.4078        57.803368      46.68787       89.787205      36.935029     -4.000792e-15  -8.1898157e-06  5.7167173e-07  5.8588834      5.8582975      3.2059042      110.03651    
        18   0             -12.4078        57.803368      46.687964      89.787111      36.935029      1.8698705e-14  2.796755e-05  -1.9551217e-06  5.8588834      5.8582975      3.2059042      110.03651    
        19   0             -12.4078        57.803368      46.688018      89.787057      36.935029     -8.8771403e-15 -1.5518265e-05  1.0930383e-06  5.8588834      5.8582975      3.2059042      110.03651    
        20   0             -12.4078        57.803368      46.687826      89.787249      36.935029     -4.8976164e-15 -1.730409e-06   9.3147991e-08  5.8588834      5.8582975      3.2059042      110.03651    
        21   0             -12.4078        57.803368      46.687947      89.787127      36.935029      2.1658722e-13  6.5111327e-06 -3.925859e-07   5.8588834      5.8582975      3.2059042      110.03651    
        22   0             -12.4078        57.803368      46.687941      89.787133      36.935029     -2.7259511e-14 -1.7474677e-06  1.076913e-07   5.8588834      5.8582975      3.2059042      110.03651    
        23   0             -12.4078        57.803368      46.687881      89.787193      36.935029      4.8441202e-14 -5.3193143e-06  3.1678738e-07  5.8588834      5.8582975      3.2059042      110.03651    
        24   0             -12.4078        57.803368      46.687874      89.7872        36.935029     -2.8619445e-14  7.4364264e-06 -4.4715137e-07  5.8588834      5.8582975      3.2059042      110.03651    
        25   0             -12.4078        57.803368      46.687923      89.787152      36.935029     -7.4601771e-14  8.8426137e-07 -4.8299559e-08  5.8588834      5.8582975      3.2059042      110.03651    
        26   0             -12.4078        57.803368      46.68792       89.787154      36.935029      1.7839809e-13 -2.2124065e-06  1.2785514e-07  5.8588834      5.8582975      3.2059042      110.03651    
        27   0             -12.4078        57.803368      46.687911      89.787164      36.935029     -1.0726345e-14 -7.2451418e-07  3.900858e-08   5.8588834      5.8582975      3.2059042      110.03651    
        28   0             -12.4078        57.803368      46.687913      89.787162      36.935029     -3.2941581e-14  1.0087828e-06 -5.5123785e-08  5.8588834      5.8582975      3.2059042      110.03651    
        29   0             -12.4078        57.803368      46.687913      89.787161      36.935029     -4.9545579e-14 -3.7297562e-07  2.0439396e-08  5.8588834      5.8582975      3.2059042      110.03651    
        30   0             -12.4078        57.803368      46.687913      89.787161      36.935029     -4.9545579e-14 -3.7297562e-07  2.0439396e-08  5.8588834      5.8582975      3.2059042      110.03651    
Loop time of 0.00237335 on 1 procs for 25 steps with 4 atoms

100.0% CPU use with 1 MPI tasks x 1 OpenMP threads

Minimization stats:
  Stopping criterion = linesearch alpha is zero
  Energy initial, next-to-last, final = 
     -12.4077994088673  -12.4077995126752  -12.4077995126752
  Force two-norm initial, final = 0.00074194044 1.0894424e-10
  Force max component initial, final = 0.00037757012 6.4287047e-11
  Final line search alpha, max atom move = 0.5 3.2143523e-11
  Iterations, force evaluations = 25 47

MPI task timing breakdown:
Section |  min time  |  avg time  |  max time  |%varavg| %total
---------------------------------------------------------------
Pair    | 0.0020251  | 0.0020251  | 0.0020251  |   0.0 | 85.33
Neigh   | 0          | 0          | 0          |   0.0 |  0.00
Comm    | 5.8538e-05 | 5.8538e-05 | 5.8538e-05 |   0.0 |  2.47
Output  | 0.00024171 | 0.00024171 | 0.00024171 |   0.0 | 10.18
Modify  | 0          | 0          | 0          |   0.0 |  0.00
Other   |            | 4.799e-05  |            |       |  2.02

Nlocal:              4 ave           4 max           4 min
Histogram: 1 0 0 0 0 0 0 0 0 0
Nghost:            225 ave         225 max         225 min
Histogram: 1 0 0 0 0 0 0 0 0 0
Neighs:             52 ave          52 max          52 min
Histogram: 1 0 0 0 0 0 0 0 0 0
FullNghs:          104 ave         104 max         104 min
Histogram: 1 0 0 0 0 0 0 0 0 0

Total # of neighbors = 104
Ave neighs/atom = 26
Neighbor list builds = 0
Dangerous builds = 0

# Obtain new stress tensor

variable tmp equal pxx
variable pxx1 equal ${tmp}
variable pxx1 equal 46.6879129889974
variable tmp equal pyy
variable pyy1 equal ${tmp}
variable pyy1 equal 89.787161396835
variable tmp equal pzz
variable pzz1 equal ${tmp}
variable pzz1 equal 36.9350285546434
variable tmp equal pxy
variable pxy1 equal ${tmp}
variable pxy1 equal -4.95455790190447e-14
variable tmp equal pxz
variable pxz1 equal ${tmp}
variable pxz1 equal -3.7297562252471e-07
variable tmp equal pyz
variable pyz1 equal ${tmp}
variable pyz1 equal 2.04393957655845e-08

# Compute elastic constant from pressure tensor

variable C1neg equal ${d1}
variable C1neg equal 46.6879129891071
variable C2neg equal ${d2}
variable C2neg equal 89.7871613969365
variable C3neg equal ${d3}
variable C3neg equal 36.935028555311
variable C4neg equal ${d4}
variable C4neg equal 2.04415441115707e-08
variable C5neg equal ${d5}
variable C5neg equal -3.72979785443701e-07
variable C6neg equal ${d6}
variable C6neg equal -3.85186282697571e-14

# Reset box and simulation parameters

clear
OMP_NUM_THREADS environment is not set. Defaulting to 1 thread.
  using 1 OpenMP thread(s) per MPI task
box tilt large

The 'box' command has been removed and will be ignored

read_restart restart.equil
Reading restart file ...
  restart file = 22 Jul 2025, LAMMPS = 22 Jul 2025
  restoring atom style atomic from restart
  triclinic box = (8.292779e-06 8.292779e-06 -2.1206076e-06) to (5.8588917 5.8588917 3.2059021) with tilt (0 0 0)
  1 by 1 by 1 MPI processor grid
  pair style meam stores no restart info
  4 atoms
  read_restart CPU = 0.000 seconds
include potential.mod
# Ko 2018 MEAM potential for Sn (NIST IPR id: 2018--Ko-W-S-Kim-D-H-Kwon-Y-J-Lee-M--Sn)

variable POTDIR string "<PROJECT_ROOT>/meam_potentials"

pair_style	meam
pair_coeff	* * ${POTDIR}/library.Sn.Ko2018.meam Sn ${POTDIR}/Sn.Ko2018.meam Sn
pair_coeff	* * <PROJECT_ROOT>/meam_potentials/library.Sn.Ko2018.meam Sn ${POTDIR}/Sn.Ko2018.meam Sn
pair_coeff	* * <PROJECT_ROOT>/meam_potentials/library.Sn.Ko2018.meam Sn <PROJECT_ROOT>/meam_potentials/Sn.Ko2018.meam Sn

neighbor 1.0 bin
neigh_modify once no every 1 delay 0 check yes

min_style	     cg
min_modify	     dmax ${dmax} line quadratic
min_modify	     dmax 0.01 line quadratic

thermo		1
thermo_style custom step temp pe press pxx pyy pzz pxy pxz pyz lx ly lz vol
thermo_modify norm no

# Positive deformation

variable delta equal ${up}*${len0}
variable delta equal 0.0001*${len0}
variable delta equal 0.0001*5.85888341444202
variable deltaxy equal ${up}*xy
variable deltaxy equal 0.0001*xy
variable deltaxz equal ${up}*xz
variable deltaxz equal 0.0001*xz
variable deltayz equal ${up}*yz
variable deltayz equal 0.0001*yz
if "${dir} == 1" then    "change_box all x delta 0 ${delta} xy delta ${deltaxy} xz delta ${deltaxz} remap units box"
if "${dir} == 2" then    "change_box all y delta 0 ${delta} yz delta ${deltayz} remap units box"
change_box all y delta 0 ${delta} yz delta ${deltayz} remap units box
change_box all y delta 0 0.000585888341444202 yz delta ${deltayz} remap units box
change_box all y delta 0 0.000585888341444202 yz delta 0 remap units box
Changing box ...
  triclinic box = (8.292779e-06 8.292779e-06 -2.1206076e-06) to (5.8588917 5.8594776 3.2059021) with tilt (0 0 0)
  triclinic box = (8.292779e-06 8.292779e-06 -2.1206076e-06) to (5.8588917 5.8594776 3.2059021) with tilt (0 0 0)
if "${dir} == 3" then    "change_box all z delta 0 ${delta} remap units box"
if "${dir} == 4" then    "change_box all yz delta ${delta} remap units box"
if "${dir} == 5" then    "change_box all xz delta ${delta} remap units box"
if "${dir} == 6" then    "change_box all xy delta ${delta} remap units box"

# Relax atoms positions

minimize ${etol} ${ftol} ${maxiter} ${maxeval}
minimize 0 ${ftol} ${maxiter} ${maxeval}
minimize 0 1e-10 ${maxiter} ${maxeval}
minimize 0 1e-10 200 ${maxeval}
minimize 0 1e-10 200 2000
Neighbor list info ...
  update: every = 1 steps, delay = 0 steps, check = yes
  max neighbors/atom: 2000, page size: 100000
  master list distance cutoff = 6
  ghost atom cutoff = 6
  binsize = 3, bins = 2 2 2
  2 neighbor lists, perpetual/occasional/extra = 2 0 0
  (1) pair meam, perpetual
      attributes: full, newton on
      pair build: full/bin/atomonly
      stencil: full/bin/3d
      bin: standard
  (2) pair meam, perpetual, half/full from (1)
      attributes: half, newton on
      pair build: halffull/newton/tri
      stencil: none
      bin: none
Per MPI rank memory allocation (min/avg/max) = 9.617 | 9.617 | 9.617 Mbytes
   Step          Temp          PotEng         Press           Pxx            Pyy            Pzz            Pxy            Pxz            Pyz             Lx             Ly             Lz           Volume    
         5   0             -12.407799     -57.747479     -16.59547      -119.74689     -36.900075     -8.9973686e-07  0.15115403    -0.31427967     5.8588834      5.8594693      3.2059042      110.05852    
         6   0             -12.4078       -57.753074     -46.2828       -90.081302     -36.895119     -6.8603815e-06 -0.14595102     0.30188801     5.8588834      5.8594693      3.2059042      110.05852    
         7   0             -12.4078       -57.753125     -46.650275     -89.714028     -36.895073      1.8628338e-07 -0.021984806    0.045741388    5.8588834      5.8594693      3.2059042      110.05852    
         8   0             -12.4078       -57.753126     -46.657857     -89.706449     -36.895072     -4.8711148e-08  0.0056846953  -0.011742113    5.8588834      5.8594693      3.2059042      110.05852    
         9   0             -12.4078       -57.753126     -46.65144      -89.712866     -36.895073      8.7779651e-10 -0.00013786612  0.00011939274  5.8588834      5.8594693      3.2059042      110.05852    
        10   0             -12.4078       -57.753126     -46.651147     -89.713158     -36.895073     -1.8964346e-09  0.00019759358  0.00028261233  5.8588834      5.8594693      3.2059042      110.05852    
        11   0             -12.4078       -57.753125     -46.652051     -89.712253     -36.895072      9.5421029e-09 -0.00083755402 -0.0011963592   5.8588834      5.8594693      3.2059042      110.05852    
        12   0             -12.4078       -57.753125     -46.651952     -89.712351     -36.895072     -1.3625175e-08  0.00077129531  0.0010979239   5.8588834      5.8594693      3.2059042      110.05852    
        13   0             -12.4078       -57.753124     -46.650889     -89.713413     -36.895072     -7.7522878e-09  0.0032599677   0.0046568251   5.8588834      5.8594693      3.2059042      110.05852    
        14   0             -12.4078       -57.753124     -46.650686     -89.713616     -36.895072      1.9355238e-10  0.0011313068   0.0016226552   5.8588834      5.8594693      3.2059042      110.05852    
        15   0             -12.4078       -57.753124     -46.651344     -89.712957     -36.895072      7.3156987e-11 -0.00086308752 -0.0012342119   5.8588834      5.8594693      3.2059042      110.05852    
        16   0             -12.4078       -57.753124     -46.651773     -89.712529     -36.895072     -3.5454021e-12  2.68643e-05    3.3825505e-05  5.8588834      5.8594693      3.2059042      110.05852    
        17   0             -12.4078       -57.753124     -46.651656     -89.712646     -36.895072      1.4442768e-13  4.8986024e-06  6.1955403e-06  5.8588834      5.8594693      3.2059042      110.05852    
        18   0             -12.4078       -57.753124     -46.651433     -89.712869     -36.895072      3.2946139e-14 -8.8126948e-06 -1.1122303e-05  5.8588834      5.8594693      3.2059042      110.05852    
        19   0             -12.4078       -57.753124     -46.651393     -89.712909     -36.895072     -1.494934e-14   1.6628566e-05  2.0934119e-05  5.8588834      5.8594693      3.2059042      110.05852    
        20   0             -12.4078       -57.753124     -46.651393     -89.712909     -36.895072     -1.494934e-14   1.6628566e-05  2.0934119e-05  5.8588834      5.8594693      3.2059042      110.05852    
Loop time of 0.00144204 on 1 procs for 15 steps with 4 atoms

85.2% CPU use with 1 MPI tasks x 1 OpenMP threads

Minimization stats:
  Stopping criterion = linesearch alpha is zero
  Energy initial, next-to-last, final = 
     -12.4077994090281  -12.4077995128454  -12.4077995128454
  Force two-norm initial, final = 0.00074152267 5.376343e-09
  Force max component initial, final = 0.00037736553 2.8134657e-09
  Final line search alpha, max atom move = 0.5 1.4067328e-09
  Iterations, force evaluations = 15 28

MPI task timing breakdown:
Section |  min time  |  avg time  |  max time  |%varavg| %total
---------------------------------------------------------------
Pair    | 0.0012199  | 0.0012199  | 0.0012199  |   0.0 | 84.60
Neigh   | 0          | 0          | 0          |   0.0 |  0.00
Comm    | 4.1821e-05 | 4.1821e-05 | 4.1821e-05 |   0.0 |  2.90
Output  | 0.00014579 | 0.00014579 | 0.00014579 |   0.0 | 10.11
Modify  | 0          | 0          | 0          |   0.0 |  0.00
Other   |            | 3.448e-05  |            |       |  2.39

Nlocal:              4 ave           4 max           4 min
Histogram: 1 0 0 0 0 0 0 0 0 0
Nghost:            225 ave         225 max         225 min
Histogram: 1 0 0 0 0 0 0 0 0 0
Neighs:             52 ave          52 max          52 min
Histogram: 1 0 0 0 0 0 0 0 0 0
FullNghs:          104 ave         104 max         104 min
Histogram: 1 0 0 0 0 0 0 0 0 0

Total # of neighbors = 104
Ave neighs/atom = 26
Neighbor list builds = 0
Dangerous builds = 0

# Obtain new stress tensor

variable tmp equal pe
variable e1 equal ${tmp}
variable e1 equal -12.4077995128454
variable tmp equal press
variable p1 equal ${tmp}
variable p1 equal -57.7531243938629
variable tmp equal pxx
variable pxx1 equal ${tmp}
variable pxx1 equal -46.6513927735514
variable tmp equal pyy
variable pyy1 equal ${tmp}
variable pyy1 equal -89.7129088236913
variable tmp equal pzz
variable pzz1 equal ${tmp}
variable pzz1 equal -36.895071584346
variable tmp equal pxy
variable pxy1 equal ${tmp}
variable pxy1 equal -1.49493404454706e-14
variable tmp equal pxz
variable pxz1 equal ${tmp}
variable pxz1 equal 1.66285656513925e-05
variable tmp equal pyz
variable pyz1 equal ${tmp}
variable pyz1 equal 2.09341186203098e-05

# Compute elastic constant from pressure tensor

variable C1pos equal ${d1}
variable C1pos equal 46.6513927734417
variable C2pos equal ${d2}
variable C2pos equal 89.7129088235898
variable C3pos equal ${d3}
variable C3pos equal 36.8950715836784
variable C4pos equal ${d4}
variable C4pos equal -2.09341207686558e-05
variable C5pos equal ${d5}
variable C5pos equal -1.66285614884735e-05
variable C6pos equal ${d6}
variable C6pos equal 3.922389696183e-15

# Combine positive and negative

variable C1${dir} equal 0.5*(${C1neg}+${C1pos})
variable C12 equal 0.5*(${C1neg}+${C1pos})
variable C12 equal 0.5*(46.6879129891071+${C1pos})
variable C12 equal 0.5*(46.6879129891071+46.6513927734417)
variable C2${dir} equal 0.5*(${C2neg}+${C2pos})
variable C22 equal 0.5*(${C2neg}+${C2pos})
variable C22 equal 0.5*(89.7871613969365+${C2pos})
variable C22 equal 0.5*(89.7871613969365+89.7129088235898)
variable C3${dir} equal 0.5*(${C3neg}+${C3pos})
variable C32 equal 0.5*(${C3neg}+${C3pos})
variable C32 equal 0.5*(36.935028555311+${C3pos})
variable C32 equal 0.5*(36.935028555311+36.8950715836784)
variable C4${dir} equal 0.5*(${C4neg}+${C4pos})
variable C42 equal 0.5*(${C4neg}+${C4pos})
variable C42 equal 0.5*(2.04415441115707e-08+${C4pos})
variable C42 equal 0.5*(2.04415441115707e-08+-2.09341207686558e-05)
variable C5${dir} equal 0.5*(${C5neg}+${C5pos})
variable C52 equal 0.5*(${C5neg}+${C5pos})
variable C52 equal 0.5*(-3.72979785443701e-07+${C5pos})
variable C52 equal 0.5*(-3.72979785443701e-07+-1.66285614884735e-05)
variable C6${dir} equal 0.5*(${C6neg}+${C6pos})
variable C62 equal 0.5*(${C6neg}+${C6pos})
variable C62 equal 0.5*(-3.85186282697571e-14+${C6pos})
variable C62 equal 0.5*(-3.85186282697571e-14+3.922389696183e-15)

# Delete dir to make sure it is not reused

variable dir delete

# uzz Perturbation

variable dir equal 3
include displace.mod
# NOTE: This script should not need to be
# modified. See in.elastic for more info.
#
# Find which reference length to use

if "${dir} == 1" then    "variable len0 equal ${lx0}"
if "${dir} == 2" then    "variable len0 equal ${ly0}"
if "${dir} == 3" then    "variable len0 equal ${lz0}"
variable len0 equal ${lz0}
variable len0 equal 3.20590424121512
if "${dir} == 4" then    "variable len0 equal ${lz0}"
if "${dir} == 5" then    "variable len0 equal ${lz0}"
if "${dir} == 6" then    "variable len0 equal ${ly0}"

# Reset box and simulation parameters

clear
OMP_NUM_THREADS environment is not set. Defaulting to 1 thread.
  using 1 OpenMP thread(s) per MPI task
box tilt large

The 'box' command has been removed and will be ignored

read_restart restart.equil
Reading restart file ...
  restart file = 22 Jul 2025, LAMMPS = 22 Jul 2025
  restoring atom style atomic from restart
  triclinic box = (8.292779e-06 8.292779e-06 -2.1206076e-06) to (5.8588917 5.8588917 3.2059021) with tilt (0 0 0)
  1 by 1 by 1 MPI processor grid
  pair style meam stores no restart info
  4 atoms
  read_restart CPU = 0.000 seconds
include potential.mod
# Ko 2018 MEAM potential for Sn (NIST IPR id: 2018--Ko-W-S-Kim-D-H-Kwon-Y-J-Lee-M--Sn)

variable POTDIR string "<PROJECT_ROOT>/meam_potentials"

pair_style	meam
pair_coeff	* * ${POTDIR}/library.Sn.Ko2018.meam Sn ${POTDIR}/Sn.Ko2018.meam Sn
pair_coeff	* * <PROJECT_ROOT>/meam_potentials/library.Sn.Ko2018.meam Sn ${POTDIR}/Sn.Ko2018.meam Sn
pair_coeff	* * <PROJECT_ROOT>/meam_potentials/library.Sn.Ko2018.meam Sn <PROJECT_ROOT>/meam_potentials/Sn.Ko2018.meam Sn

neighbor 1.0 bin
neigh_modify once no every 1 delay 0 check yes

min_style	     cg
min_modify	     dmax ${dmax} line quadratic
min_modify	     dmax 0.01 line quadratic

thermo		1
thermo_style custom step temp pe press pxx pyy pzz pxy pxz pyz lx ly lz vol
thermo_modify norm no

# Negative deformation

variable delta equal -${up}*${len0}
variable delta equal -0.0001*${len0}
variable delta equal -0.0001*3.20590424121512
variable deltaxy equal -${up}*xy
variable deltaxy equal -0.0001*xy
variable deltaxz equal -${up}*xz
variable deltaxz equal -0.0001*xz
variable deltayz equal -${up}*yz
variable deltayz equal -0.0001*yz
if "${dir} == 1" then    "change_box all x delta 0 ${delta} xy delta ${deltaxy} xz delta ${deltaxz} remap units box"
if "${dir} == 2" then    "change_box all y delta 0 ${delta} yz delta ${deltayz} remap units box"
if "${dir} == 3" then    "change_box all z delta 0 ${delta} remap units box"
change_box all z delta 0 ${delta} remap units box
change_box all z delta 0 -0.000320590424121512 remap units box
Changing box ...
  triclinic box = (8.292779e-06 8.292779e-06 -2.1206076e-06) to (5.8588917 5.8588917 3.2055815) with tilt (0 0 0)
if "${dir} == 4" then    "change_box all yz delta ${delta} remap units box"
if "${dir} == 5" then    "change_box all xz delta ${delta} remap units box"
if "${dir} == 6" then    "change_box all xy delta ${delta} remap units box"

# Relax atoms positions

minimize ${etol} ${ftol} ${maxiter} ${maxeval}
minimize 0 ${ftol} ${maxiter} ${maxeval}
minimize 0 1e-10 ${maxiter} ${maxeval}
minimize 0 1e-10 200 ${maxeval}
minimize 0 1e-10 200 2000
Neighbor list info ...
  update: every = 1 steps, delay = 0 steps, check = yes
  max neighbors/atom: 2000, page size: 100000
  master list distance cutoff = 6
  ghost atom cutoff = 6
  binsize = 3, bins = 2 2 2
  2 neighbor lists, perpetual/occasional/extra = 2 0 0
  (1) pair meam, perpetual
      attributes: full, newton on
      pair build: full/bin/atomonly
      stencil: full/bin/3d
      bin: standard
  (2) pair meam, perpetual, half/full from (1)
      attributes: half, newton on
      pair build: halffull/newton/tri
      stencil: none
      bin: none
Per MPI rank memory allocation (min/avg/max) = 9.617 | 9.617 | 9.617 Mbytes
   Step          Temp          PotEng         Press           Pxx            Pyy            Pzz            Pxy            Pxz            Pyz             Lx             Ly             Lz           Volume    
         5   0             -12.407799      55.880272      36.934599      36.908298      93.797918     -9.0202398e-07  0.15117166    -0.31500207     5.8588834      5.8588834      3.2055837      110.03651    
         6   0             -12.407799      55.880228      36.92847       36.914318      93.797897     -4.2126013e-07  0.011910528   -0.024814572    5.8588834      5.8588834      3.2055837      110.03651    
         7   0             -12.407799      55.880226      36.921676      36.921105      93.797898      1.8086479e-07 -0.020342941    0.042382164    5.8588834      5.8588834      3.2055837      110.03651    
         8   0             -12.407799      55.880225      36.918426      36.924353      93.797898     -7.3439527e-10  7.815582e-05  -0.00016362926  5.8588834      5.8588834      3.2055837      110.03651    
         9   0             -12.407799      55.880226      36.926175      36.916604      93.797898     -4.6451994e-10  7.5124986e-05 -0.00015308004  5.8588834      5.8588834      3.2055837      110.03651    
        10   0             -12.407799      55.880226      36.913556      36.929224      93.797898      2.2960044e-09 -0.00031868469  0.00064941952  5.8588834      5.8588834      3.2055837      110.03651    
        11   0             -12.407799      55.880226      36.933602      36.909179      93.797898     -1.1592208e-08  0.0013327962  -0.0027160121   5.8588834      5.8588834      3.2055837      110.03651    
        12   0             -12.407799      55.880227      36.924657      36.918124      93.797898      2.7526275e-08 -0.0026899664   0.0054816969   5.8588834      5.8588834      3.2055837      110.03651    
        13   0             -12.407799      55.880227      36.896102      36.946681      93.797899      4.1818647e-09 -0.0055722429   0.011355279    5.8588834      5.8588834      3.2055837      110.03651    
        14   0             -12.407799      55.880227      36.90043       36.942352      93.797899     -1.3984718e-09 -0.00021116076  0.00043029971  5.8588834      5.8588834      3.2055837      110.03651    
        15   0             -12.407799      55.880227      36.914765      36.928018      93.797899      2.3515307e-10  0.00068310247 -0.0013920445   5.8588834      5.8588834      3.2055837      110.03651    
        16   0             -12.407799      55.880227      36.922273      36.920509      93.797899      6.2840021e-11 -4.2446553e-05  8.6501364e-05  5.8588834      5.8588834      3.2055837      110.03651    
        17   0             -12.407799      55.880227      36.921522      36.92126       93.797899     -6.8890908e-11  2.9402732e-05 -5.9919394e-05  5.8588834      5.8588834      3.2055837      110.03651    
        18   0             -12.407799      55.880227      36.919392      36.923391      93.797899      3.1152549e-11  5.9457453e-05 -0.00012116749  5.8588834      5.8588834      3.2055837      110.03651    
        19   0             -12.407799      55.880227      36.919392      36.923391      93.797899      3.1152549e-11  5.9457453e-05 -0.00012116749  5.8588834      5.8588834      3.2055837      110.03651    
Loop time of 0.00130127 on 1 procs for 14 steps with 4 atoms

15.4% CPU use with 1 MPI tasks x 1 OpenMP threads

Minimization stats:
  Stopping criterion = linesearch alpha is zero
  Energy initial, next-to-last, final = 
     -12.4077994983541  -12.4077994989375  -12.4077994989375
  Force two-norm initial, final = 7.6917172e-05 6.7931464e-08
  Force max component initial, final = 4.4368766e-05 3.5997799e-08
  Final line search alpha, max atom move = 0.5 1.7998899e-08
  Iterations, force evaluations = 14 25

MPI task timing breakdown:
Section |  min time  |  avg time  |  max time  |%varavg| %total
---------------------------------------------------------------
Pair    | 0.001086   | 0.001086   | 0.001086   |   0.0 | 83.46
Neigh   | 0          | 0          | 0          |   0.0 |  0.00
Comm    | 3.2035e-05 | 3.2035e-05 | 3.2035e-05 |   0.0 |  2.46
Output  | 0.00015539 | 0.00015539 | 0.00015539 |   0.0 | 11.94
Modify  | 0          | 0          | 0          |   0.0 |  0.00
Other   |            | 2.787e-05  |            |       |  2.14

Nlocal:              4 ave           4 max           4 min
Histogram: 1 0 0 0 0 0 0 0 0 0
Nghost:            225 ave         225 max         225 min
Histogram: 1 0 0 0 0 0 0 0 0 0
Neighs:             52 ave          52 max          52 min
Histogram: 1 0 0 0 0 0 0 0 0 0
FullNghs:          104 ave         104 max         104 min
Histogram: 1 0 0 0 0 0 0 0 0 0

Total # of neighbors = 104
Ave neighs/atom = 26
Neighbor list builds = 0
Dangerous builds = 0

# Obtain new stress tensor

variable tmp equal pxx
variable pxx1 equal ${tmp}
variable pxx1 equal 36.9193919998667
variable tmp equal pyy
variable pyy1 equal ${tmp}
variable pyy1 equal 36.9233907817945
variable tmp equal pzz
variable pzz1 equal ${tmp}
variable pzz1 equal 93.7978989319307
variable tmp equal pxy
variable pxy1 equal ${tmp}
variable pxy1 equal 3.11525491895948e-11
variable tmp equal pxz
variable pxz1 equal ${tmp}
variable pxz1 equal 5.94574533831522e-05
variable tmp equal pyz
variable pyz1 equal ${tmp}
variable pyz1 equal -0.000121167489396639

# Compute elastic constant from pressure tensor

variable C1neg equal ${d1}
variable C1neg equal 36.9193919999764
variable C2neg equal ${d2}
variable C2neg equal 36.923390781896
variable C3neg equal ${d3}
variable C3neg equal 93.7978989325983
variable C4neg equal ${d4}
variable C4neg equal -0.000121167487248293
variable C5neg equal ${d5}
variable C5neg equal 5.94574492202332e-05
variable C6neg equal ${d6}
variable C6neg equal 3.11635761403441e-11

# Reset box and simulation parameters

clear
OMP_NUM_THREADS environment is not set. Defaulting to 1 thread.
  using 1 OpenMP thread(s) per MPI task
box tilt large

The 'box' command has been removed and will be ignored

read_restart restart.equil
Reading restart file ...
  restart file = 22 Jul 2025, LAMMPS = 22 Jul 2025
  restoring atom style atomic from restart
  triclinic box = (8.292779e-06 8.292779e-06 -2.1206076e-06) to (5.8588917 5.8588917 3.2059021) with tilt (0 0 0)
  1 by 1 by 1 MPI processor grid
  pair style meam stores no restart info
  4 atoms
  read_restart CPU = 0.000 seconds
include potential.mod
# Ko 2018 MEAM potential for Sn (NIST IPR id: 2018--Ko-W-S-Kim-D-H-Kwon-Y-J-Lee-M--Sn)

variable POTDIR string "<PROJECT_ROOT>/meam_potentials"

pair_style	meam
pair_coeff	* * ${POTDIR}/library.Sn.Ko2018.meam Sn ${POTDIR}/Sn.Ko2018.meam Sn
pair_coeff	* * <PROJECT_ROOT>/meam_potentials/library.Sn.Ko2018.meam Sn ${POTDIR}/Sn.Ko2018.meam Sn
pair_coeff	* * <PROJECT_ROOT>/meam_potentials/library.Sn.Ko2018.meam Sn <PROJECT_ROOT>/meam_potentials/Sn.Ko2018.meam Sn

neighbor 1.0 bin
neigh_modify once no every 1 delay 0 check yes

min_style	     cg
min_modify	     dmax ${dmax} line quadratic
min_modify	     dmax 0.01 line quadratic

thermo		1
thermo_style custom step temp pe press pxx pyy pzz pxy pxz pyz lx ly lz vol
thermo_modify norm no

# Positive deformation

variable delta equal ${up}*${len0}
variable delta equal 0.0001*${len0}
variable delta equal 0.0001*3.20590424121512
variable deltaxy equal ${up}*xy
variable deltaxy equal 0.0001*xy
variable deltaxz equal ${up}*xz
variable deltaxz equal 0.0001*xz
variable deltayz equal ${up}*yz
variable deltayz equal 0.0001*yz
if "${dir} == 1" then    "change_box all x delta 0 ${delta} xy delta ${deltaxy} xz delta ${deltaxz} remap units box"
if "${dir} == 2" then    "change_box all y delta 0 ${delta} yz delta ${deltayz} remap units box"
if "${dir} == 3" then    "change_box all z delta 0 ${delta} remap units box"
change_box all z delta 0 ${delta} remap units box
change_box all z delta 0 0.000320590424121512 remap units box
Changing box ...
  triclinic box = (8.292779e-06 8.292779e-06 -2.1206076e-06) to (5.8588917 5.8588917 3.2062227) with tilt (0 0 0)
if "${dir} == 4" then    "change_box all yz delta ${delta} remap units box"
if "${dir} == 5" then    "change_box all xz delta ${delta} remap units box"
if "${dir} == 6" then    "change_box all xy delta ${delta} remap units box"

# Relax atoms positions

minimize ${etol} ${ftol} ${maxiter} ${maxeval}
minimize 0 ${ftol} ${maxiter} ${maxeval}
minimize 0 1e-10 ${maxiter} ${maxeval}
minimize 0 1e-10 200 ${maxeval}
minimize 0 1e-10 200 2000
Neighbor list info ...
  update: every = 1 steps, delay = 0 steps, check = yes
  max neighbors/atom: 2000, page size: 100000
  master list distance cutoff = 6
  ghost atom cutoff = 6
  binsize = 3, bins = 2 2 2
  2 neighbor lists, perpetual/occasional/extra = 2 0 0
  (1) pair meam, perpetual
      attributes: full, newton on
      pair build: full/bin/atomonly
      stencil: full/bin/3d
      bin: standard
  (2) pair meam, perpetual, half/full from (1)
      attributes: half, newton on
      pair build: halffull/newton/tri
      stencil: none
      bin: none
Per MPI rank memory allocation (min/avg/max) = 9.617 | 9.617 | 9.617 Mbytes
   Step          Temp          PotEng         Press           Pxx            Pyy            Pzz            Pxy            Pxz            Pyz             Lx             Ly             Lz           Volume    
         5   0             -12.407799     -55.825697     -36.895488     -36.92179      -93.659812     -9.0105795e-07  0.15125511    -0.31517595     5.8588834      5.8588834      3.2062248      110.05852    
         6   0             -12.407799     -55.82574      -36.901618     -36.915769     -93.659833     -4.2063407e-07  0.011909588   -0.024812602    5.8588834      5.8588834      3.2062248      110.05852    
         7   0             -12.407799     -55.825742     -36.908413     -36.90898      -93.659833      1.8056401e-07 -0.020361209    0.042420219    5.8588834      5.8588834      3.2062248      110.05852    
         8   0             -12.407799     -55.825743     -36.911661     -36.905735     -93.659833     -7.4132043e-10  7.9139834e-05 -0.00016568073  5.8588834      5.8588834      3.2062248      110.05852    
         9   0             -12.407799     -55.825743     -36.903919     -36.913477     -93.659832     -4.6953807e-10  7.5950954e-05 -0.00015479692  5.8588834      5.8588834      3.2062248      110.05852    
        10   0             -12.407799     -55.825742     -36.916514     -36.900881     -93.659832      2.3177037e-09 -0.00032195395  0.00065622507  5.8588834      5.8588834      3.2062248      110.05852    
        11   0             -12.407799     -55.825742     -36.896508     -36.920886     -93.659832     -1.1693007e-08  0.0013460123  -0.002743544    5.8588834      5.8588834      3.2062248      110.05852    
        12   0             -12.407799     -55.825742     -36.905273     -36.91212      -93.659832      2.748544e-08  -0.0026863214   0.0054754658   5.8588834      5.8588834      3.2062248      110.05852    
        13   0             -12.407799     -55.825741     -36.933529     -36.883863     -93.659831      4.1041708e-09 -0.0055828977   0.011379479    5.8588834      5.8588834      3.2062248      110.05852    
        14   0             -12.407799     -55.825741     -36.929331     -36.888061     -93.659831     -1.3596815e-09 -0.0002265198   0.00046169992  5.8588834      5.8588834      3.2062248      110.05852    
        15   0             -12.407799     -55.825741     -36.915334     -36.902058     -93.659831      2.2480528e-10  0.00067016951 -0.0013659881   5.8588834      5.8588834      3.2062248      110.05852    
        16   0             -12.407799     -55.825741     -36.907843     -36.909549     -93.659831      6.1512799e-11 -4.2997578e-05  8.7643365e-05  5.8588834      5.8588834      3.2062248      110.05852    
        17   0             -12.407799     -55.825741     -36.908562     -36.90883      -93.659831     -6.6188401e-11  2.9044541e-05 -5.9202293e-05  5.8588834      5.8588834      3.2062248      110.05852    
        18   0             -12.407799     -55.825741     -36.910637     -36.906755     -93.659831      2.982528e-11   6.0766668e-05 -0.0001238626   5.8588834      5.8588834      3.2062248      110.05852    
        19   0             -12.407799     -55.825741     -36.910637     -36.906755     -93.659831      2.982528e-11   6.0766668e-05 -0.0001238626   5.8588834      5.8588834      3.2062248      110.05852    
Loop time of 0.00128198 on 1 procs for 14 steps with 4 atoms

89.9% CPU use with 1 MPI tasks x 1 OpenMP threads

Minimization stats:
  Stopping criterion = linesearch alpha is zero
  Energy initial, next-to-last, final = 
     -12.4077994986705  -12.4077994992536  -12.4077994992536
  Force two-norm initial, final = 7.6872451e-05 6.6856874e-08
  Force max component initial, final = 4.434463e-05 3.5487124e-08
  Final line search alpha, max atom move = 0.5 1.7743562e-08
  Iterations, force evaluations = 14 25

MPI task timing breakdown:
Section |  min time  |  avg time  |  max time  |%varavg| %total
---------------------------------------------------------------
Pair    | 0.0010881  | 0.0010881  | 0.0010881  |   0.0 | 84.87
Neigh   | 0          | 0          | 0          |   0.0 |  0.00
Comm    | 3.3951e-05 | 3.3951e-05 | 3.3951e-05 |   0.0 |  2.65
Output  | 0.00013292 | 0.00013292 | 0.00013292 |   0.0 | 10.37
Modify  | 0          | 0          | 0          |   0.0 |  0.00
Other   |            | 2.704e-05  |            |       |  2.11

Nlocal:              4 ave           4 max           4 min
Histogram: 1 0 0 0 0 0 0 0 0 0
Nghost:            225 ave         225 max         225 min
Histogram: 1 0 0 0 0 0 0 0 0 0
Neighs:             52 ave          52 max          52 min
Histogram: 1 0 0 0 0 0 0 0 0 0
FullNghs:          104 ave         104 max         104 min
Histogram: 1 0 0 0 0 0 0 0 0 0

Total # of neighbors = 104
Ave neighs/atom = 26
Neighbor list builds = 0
Dangerous builds = 0

# Obtain new stress tensor

variable tmp equal pe
variable e1 equal ${tmp}
variable e1 equal -12.4077994992536
variable tmp equal press
variable p1 equal ${tmp}
variable p1 equal -55.8257410456574
variable tmp equal pxx
variable pxx1 equal ${tmp}
variable pxx1 equal -36.9106371832958
variable tmp equal pyy
variable pyy1 equal ${tmp}
variable pyy1 equal -36.9067547117821
variable tmp equal pzz
variable pzz1 equal ${tmp}
variable pzz1 equal -93.6598312418945
variable tmp equal pxy
variable pxy1 equal ${tmp}
variable pxy1 equal 2.98252795098707e-11
variable tmp equal pxz
variable pxz1 equal ${tmp}
variable pxz1 equal 6.07666678788479e-05
variable tmp equal pyz
variable pyz1 equal ${tmp}
variable pyz1 equal -0.000123862601409411

# Compute elastic constant from pressure tensor

variable C1pos equal ${d1}
variable C1pos equal 36.9106371831861
variable C2pos equal ${d2}
variable C2pos equal 36.9067547116806
variable C3pos equal ${d3}
variable C3pos equal 93.659831241227
variable C4pos equal ${d4}
variable C4pos equal 0.000123862599261065
variable C5pos equal ${d5}
variable C5pos equal -6.07666637159289e-05
variable C6pos equal ${d6}
variable C6pos equal -2.983630646062e-11

# Combine positive and negative

variable C1${dir} equal 0.5*(${C1neg}+${C1pos})
variable C13 equal 0.5*(${C1neg}+${C1pos})
variable C13 equal 0.5*(36.9193919999764+${C1pos})
variable C13 equal 0.5*(36.9193919999764+36.9106371831861)
variable C2${dir} equal 0.5*(${C2neg}+${C2pos})
variable C23 equal 0.5*(${C2neg}+${C2pos})
variable C23 equal 0.5*(36.923390781896+${C2pos})
variable C23 equal 0.5*(36.923390781896+36.9067547116806)
variable C3${dir} equal 0.5*(${C3neg}+${C3pos})
variable C33 equal 0.5*(${C3neg}+${C3pos})
variable C33 equal 0.5*(93.7978989325983+${C3pos})
variable C33 equal 0.5*(93.7978989325983+93.659831241227)
variable C4${dir} equal 0.5*(${C4neg}+${C4pos})
variable C43 equal 0.5*(${C4neg}+${C4pos})
variable C43 equal 0.5*(-0.000121167487248293+${C4pos})
variable C43 equal 0.5*(-0.000121167487248293+0.000123862599261065)
variable C5${dir} equal 0.5*(${C5neg}+${C5pos})
variable C53 equal 0.5*(${C5neg}+${C5pos})
variable C53 equal 0.5*(5.94574492202332e-05+${C5pos})
variable C53 equal 0.5*(5.94574492202332e-05+-6.07666637159289e-05)
variable C6${dir} equal 0.5*(${C6neg}+${C6pos})
variable C63 equal 0.5*(${C6neg}+${C6pos})
variable C63 equal 0.5*(3.11635761403441e-11+${C6pos})
variable C63 equal 0.5*(3.11635761403441e-11+-2.983630646062e-11)

# Delete dir to make sure it is not reused

variable dir delete

# uyz Perturbation

variable dir equal 4
include displace.mod
# NOTE: This script should not need to be
# modified. See in.elastic for more info.
#
# Find which reference length to use

if "${dir} == 1" then    "variable len0 equal ${lx0}"
if "${dir} == 2" then    "variable len0 equal ${ly0}"
if "${dir} == 3" then    "variable len0 equal ${lz0}"
if "${dir} == 4" then    "variable len0 equal ${lz0}"
variable len0 equal ${lz0}
variable len0 equal 3.20590424121512
if "${dir} == 5" then    "variable len0 equal ${lz0}"
if "${dir} == 6" then    "variable len0 equal ${ly0}"

# Reset box and simulation parameters

clear
OMP_NUM_THREADS environment is not set. Defaulting to 1 thread.
  using 1 OpenMP thread(s) per MPI task
box tilt large

The 'box' command has been removed and will be ignored

read_restart restart.equil
Reading restart file ...
  restart file = 22 Jul 2025, LAMMPS = 22 Jul 2025
  restoring atom style atomic from restart
  triclinic box = (8.292779e-06 8.292779e-06 -2.1206076e-06) to (5.8588917 5.8588917 3.2059021) with tilt (0 0 0)
  1 by 1 by 1 MPI processor grid
  pair style meam stores no restart info
  4 atoms
  read_restart CPU = 0.000 seconds
include potential.mod
# Ko 2018 MEAM potential for Sn (NIST IPR id: 2018--Ko-W-S-Kim-D-H-Kwon-Y-J-Lee-M--Sn)

variable POTDIR string "<PROJECT_ROOT>/meam_potentials"

pair_style	meam
pair_coeff	* * ${POTDIR}/library.Sn.Ko2018.meam Sn ${POTDIR}/Sn.Ko2018.meam Sn
pair_coeff	* * <PROJECT_ROOT>/meam_potentials/library.Sn.Ko2018.meam Sn ${POTDIR}/Sn.Ko2018.meam Sn
pair_coeff	* * <PROJECT_ROOT>/meam_potentials/library.Sn.Ko2018.meam Sn <PROJECT_ROOT>/meam_potentials/Sn.Ko2018.meam Sn

neighbor 1.0 bin
neigh_modify once no every 1 delay 0 check yes

min_style	     cg
min_modify	     dmax ${dmax} line quadratic
min_modify	     dmax 0.01 line quadratic

thermo		1
thermo_style custom step temp pe press pxx pyy pzz pxy pxz pyz lx ly lz vol
thermo_modify norm no

# Negative deformation

variable delta equal -${up}*${len0}
variable delta equal -0.0001*${len0}
variable delta equal -0.0001*3.20590424121512
variable deltaxy equal -${up}*xy
variable deltaxy equal -0.0001*xy
variable deltaxz equal -${up}*xz
variable deltaxz equal -0.0001*xz
variable deltayz equal -${up}*yz
variable deltayz equal -0.0001*yz
if "${dir} == 1" then    "change_box all x delta 0 ${delta} xy delta ${deltaxy} xz delta ${deltaxz} remap units box"
if "${dir} == 2" then    "change_box all y delta 0 ${delta} yz delta ${deltayz} remap units box"
if "${dir} == 3" then    "change_box all z delta 0 ${delta} remap units box"
if "${dir} == 4" then    "change_box all yz delta ${delta} remap units box"
change_box all yz delta ${delta} remap units box
change_box all yz delta -0.000320590424121512 remap units box
Changing box ...
  triclinic box = (8.292779e-06 8.292779e-06 -2.1206076e-06) to (5.8588917 5.8588917 3.2059021) with tilt (0 0 -0.00032059042)
if "${dir} == 5" then    "change_box all xz delta ${delta} remap units box"
if "${dir} == 6" then    "change_box all xy delta ${delta} remap units box"

# Relax atoms positions

minimize ${etol} ${ftol} ${maxiter} ${maxeval}
minimize 0 ${ftol} ${maxiter} ${maxeval}
minimize 0 1e-10 ${maxiter} ${maxeval}
minimize 0 1e-10 200 ${maxeval}
minimize 0 1e-10 200 2000
Neighbor list info ...
  update: every = 1 steps, delay = 0 steps, check = yes
  max neighbors/atom: 2000, page size: 100000
  master list distance cutoff = 6
  ghost atom cutoff = 6
  binsize = 3, bins = 2 2 2
  2 neighbor lists, perpetual/occasional/extra = 2 0 0
  (1) pair meam, perpetual
      attributes: full, newton on
      pair build: full/bin/atomonly
      stencil: full/bin/3d
      bin: standard
  (2) pair meam, perpetual, half/full from (1)
      attributes: half, newton on
      pair build: halffull/newton/tri
      stencil: none
[...]

Nlocal:              4 ave           4 max           4 min
Histogram: 1 0 0 0 0 0 0 0 0 0
Nghost:            225 ave         225 max         225 min
Histogram: 1 0 0 0 0 0 0 0 0 0
Neighs:             52 ave          52 max          52 min
Histogram: 1 0 0 0 0 0 0 0 0 0
FullNghs:          104 ave         104 max         104 min
Histogram: 1 0 0 0 0 0 0 0 0 0

Total # of neighbors = 104
Ave neighs/atom = 26
Neighbor list builds = 0
Dangerous builds = 0

# Obtain new stress tensor

variable tmp equal pxx
variable pxx1 equal ${tmp}
variable pxx1 equal -0.00349535986627215
variable tmp equal pyy
variable pyy1 equal ${tmp}
variable pyy1 equal 0.000628197548106353
variable tmp equal pzz
variable pzz1 equal ${tmp}
variable pzz1 equal -0.00137810530108762
variable tmp equal pxy
variable pxy1 equal ${tmp}
variable pxy1 equal 10.6261330363469
variable tmp equal pxz
variable pxz1 equal ${tmp}
variable pxz1 equal 5.46303305695878e-05
variable tmp equal pyz
variable pyz1 equal ${tmp}
variable pyz1 equal -0.00010144148577018

# Compute elastic constant from pressure tensor

variable C1neg equal ${d1}
variable C1neg equal -0.00349535975656177
variable C2neg equal ${d2}
variable C2neg equal 0.000628197649579646
variable C3neg equal ${d3}
variable C3neg equal -0.00137810463352976
variable C4neg equal ${d4}
variable C4neg equal -0.000101441483621834
variable C5neg equal ${d5}
variable C5neg equal 5.46303264066688e-05
variable C6neg equal ${d6}
variable C6neg equal 10.6261330363469

# Reset box and simulation parameters

clear
OMP_NUM_THREADS environment is not set. Defaulting to 1 thread.
  using 1 OpenMP thread(s) per MPI task
box tilt large

The 'box' command has been removed and will be ignored

read_restart restart.equil
Reading restart file ...
  restart file = 22 Jul 2025, LAMMPS = 22 Jul 2025
  restoring atom style atomic from restart
  triclinic box = (8.292779e-06 8.292779e-06 -2.1206076e-06) to (5.8588917 5.8588917 3.2059021) with tilt (0 0 0)
  1 by 1 by 1 MPI processor grid
  pair style meam stores no restart info
  4 atoms
  read_restart CPU = 0.000 seconds
include potential.mod
# Ko 2018 MEAM potential for Sn (NIST IPR id: 2018--Ko-W-S-Kim-D-H-Kwon-Y-J-Lee-M--Sn)

variable POTDIR string "<PROJECT_ROOT>/meam_potentials"

pair_style	meam
pair_coeff	* * ${POTDIR}/library.Sn.Ko2018.meam Sn ${POTDIR}/Sn.Ko2018.meam Sn
pair_coeff	* * <PROJECT_ROOT>/meam_potentials/library.Sn.Ko2018.meam Sn ${POTDIR}/Sn.Ko2018.meam Sn
pair_coeff	* * <PROJECT_ROOT>/meam_potentials/library.Sn.Ko2018.meam Sn <PROJECT_ROOT>/meam_potentials/Sn.Ko2018.meam Sn

neighbor 1.0 bin
neigh_modify once no every 1 delay 0 check yes

min_style	     cg
min_modify	     dmax ${dmax} line quadratic
min_modify	     dmax 0.01 line quadratic

thermo		1
thermo_style custom step temp pe press pxx pyy pzz pxy pxz pyz lx ly lz vol
thermo_modify norm no

# Positive deformation

variable delta equal ${up}*${len0}
variable delta equal 0.0001*${len0}
variable delta equal 0.0001*5.85888341444202
variable deltaxy equal ${up}*xy
variable deltaxy equal 0.0001*xy
variable deltaxz equal ${up}*xz
variable deltaxz equal 0.0001*xz
variable deltayz equal ${up}*yz
variable deltayz equal 0.0001*yz
if "${dir} == 1" then    "change_box all x delta 0 ${delta} xy delta ${deltaxy} xz delta ${deltaxz} remap units box"
if "${dir} == 2" then    "change_box all y delta 0 ${delta} yz delta ${deltayz} remap units box"
if "${dir} == 3" then    "change_box all z delta 0 ${delta} remap units box"
if "${dir} == 4" then    "change_box all yz delta ${delta} remap units box"
if "${dir} == 5" then    "change_box all xz delta ${delta} remap units box"
if "${dir} == 6" then    "change_box all xy delta ${delta} remap units box"
change_box all xy delta ${delta} remap units box
change_box all xy delta 0.000585888341444202 remap units box
Changing box ...
  triclinic box = (8.292779e-06 8.292779e-06 -2.1206076e-06) to (5.8588917 5.8588917 3.2059021) with tilt (0.00058588834 0 0)

# Relax atoms positions

minimize ${etol} ${ftol} ${maxiter} ${maxeval}
minimize 0 ${ftol} ${maxiter} ${maxeval}
minimize 0 1e-10 ${maxiter} ${maxeval}
minimize 0 1e-10 200 ${maxeval}
minimize 0 1e-10 200 2000
Neighbor list info ...
  update: every = 1 steps, delay = 0 steps, check = yes
  max neighbors/atom: 2000, page size: 100000
  master list distance cutoff = 6
  ghost atom cutoff = 6
  binsize = 3, bins = 2 2 2
  2 neighbor lists, perpetual/occasional/extra = 2 0 0
  (1) pair meam, perpetual
      attributes: full, newton on
      pair build: full/bin/atomonly
      stencil: full/bin/3d
      bin: standard
  (2) pair meam, perpetual, half/full from (1)
      attributes: half, newton on
      pair build: halffull/newton/tri
      stencil: none
      bin: none
Per MPI rank memory allocation (min/avg/max) = 9.617 | 9.617 | 9.617 Mbytes
   Step          Temp          PotEng         Press           Pxx            Pyy            Pzz            Pxy            Pxz            Pyz             Lx             Ly             Lz           Volume    
         5   0             -12.4078       -0.0013707332   0.013291497   -0.016044605   -0.0013590912  -10.626136      0.15124572    -0.31511964     5.8588834      5.8588834      3.2059042      110.04752    
         6   0             -12.4078       -0.0014138407   0.0064655457  -0.0093273731  -0.0013796948  -10.626134      0.011907531   -0.024811954    5.8588834      5.8588834      3.2059042      110.04752    
         7   0             -12.4078       -0.0014160032  -0.0011029237  -0.0017656745  -0.0013794113  -10.626133     -0.020353688    0.042403122    5.8588834      5.8588834      3.2059042      110.04752    
         8   0             -12.4078       -0.0014170063  -0.0047222092   0.0018507025  -0.0013795122  -10.626133      8.0313263e-05 -0.0001645216   5.8588834      5.8588834      3.2059042      110.04752    
         9   0             -12.4078       -0.0014166096   0.0039065264  -0.0067771339  -0.0013792211  -10.626134      6.9185866e-05 -0.00015590213  5.8588834      5.8588834      3.2059042      110.04752    
        10   0             -12.4078       -0.0014162976  -0.010137483    0.0072675825  -0.0013789922  -10.626132     -0.00029339515  0.00066115564  5.8588834      5.8588834      3.2059042      110.04752    
        11   0             -12.4078       -0.001416028    0.011843511   -0.0147128     -0.0013787956  -10.626135      0.0012184318  -0.0027456298   5.8588834      5.8588834      3.2059042      110.04752    
        12   0             -12.4078       -0.0014156885   0.0023708942  -0.005239411   -0.0013785487  -10.626134     -0.0025385881   0.0057201867   5.8588834      5.8588834      3.2059042      110.04752    
        13   0             -12.4078       -0.001415118   -0.027059072    0.024191855   -0.0013781368  -10.626131     -0.0050328429   0.01134124     5.8588834      5.8588834      3.2059042      110.04752    
        14   0             -12.4078       -0.0014150906  -0.022138635    0.019271471   -0.0013781081  -10.626131     -0.00016787085  0.00037872952  5.8588834      5.8588834      3.2059042      110.04752    
        15   0             -12.4078       -0.0014150905  -0.0076746483   0.0048074832  -0.0013781065  -10.626133      0.00062177333 -0.0014012157   5.8588834      5.8588834      3.2059042      110.04752    
        16   0             -12.4078       -0.0014150906  -0.00047469943 -0.0023924659  -0.0013781063  -10.626133     -3.653082e-05   8.2190892e-05  5.8588834      5.8588834      3.2059042      110.04752    
        17   0             -12.4078       -0.0014150904  -0.0013863082  -0.001480857   -0.0013781062  -10.626133      3.3564737e-05 -7.5513316e-05  5.8588834      5.8588834      3.2059042      110.04752    
        18   0             -12.4078       -0.0014150891  -0.0034995402   0.00063237803 -0.0013781052  -10.626133      4.6766697e-05 -0.00010523291  5.8588834      5.8588834      3.2059042      110.04752    
        19   0             -12.4078       -0.0014150891  -0.0034995402   0.00063237803 -0.0013781052  -10.626133      4.6766697e-05 -0.00010523291  5.8588834      5.8588834      3.2059042      110.04752    
Loop time of 0.00127394 on 1 procs for 14 steps with 4 atoms

100.1% CPU use with 1 MPI tasks x 1 OpenMP threads

Minimization stats:
  Stopping criterion = linesearch alpha is zero
  Energy initial, next-to-last, final = 
     -12.4077997839131  -12.4077997844964  -12.4077997844964
  Force two-norm initial, final = 7.6895319e-05 7.0327171e-08
  Force max component initial, final = 4.4357336e-05 3.7548791e-08
  Final line search alpha, max atom move = 0.5 1.8774395e-08
  Iterations, force evaluations = 14 25

MPI task timing breakdown:
Section |  min time  |  avg time  |  max time  |%varavg| %total
---------------------------------------------------------------
Pair    | 0.0010899  | 0.0010899  | 0.0010899  |   0.0 | 85.56
Neigh   | 0          | 0          | 0          |   0.0 |  0.00
Comm    | 3.3859e-05 | 3.3859e-05 | 3.3859e-05 |   0.0 |  2.66
Output  | 0.00012332 | 0.00012332 | 0.00012332 |   0.0 |  9.68
Modify  | 0          | 0          | 0          |   0.0 |  0.00
Other   |            | 2.682e-05  |            |       |  2.11

Nlocal:              4 ave           4 max           4 min
Histogram: 1 0 0 0 0 0 0 0 0 0
Nghost:            225 ave         225 max         225 min
Histogram: 1 0 0 0 0 0 0 0 0 0
Neighs:             52 ave          52 max          52 min
Histogram: 1 0 0 0 0 0 0 0 0 0
FullNghs:          104 ave         104 max         104 min
Histogram: 1 0 0 0 0 0 0 0 0 0

Total # of neighbors = 104
Ave neighs/atom = 26
Neighbor list builds = 0
Dangerous builds = 0

# Obtain new stress tensor

variable tmp equal pe
variable e1 equal ${tmp}
variable e1 equal -12.4077997844964
variable tmp equal press
variable p1 equal ${tmp}
variable p1 equal -0.00141508912458501
variable tmp equal pxx
variable pxx1 equal ${tmp}
variable pxx1 equal -0.00349954020092408
variable tmp equal pyy
variable pyy1 equal ${tmp}
variable pyy1 equal 0.000632378029542071
variable tmp equal pzz
variable pzz1 equal ${tmp}
variable pzz1 equal -0.00137810520237303
variable tmp equal pxy
variable pxy1 equal ${tmp}
variable pxy1 equal -10.6261330358559
variable tmp equal pxz
variable pxz1 equal ${tmp}
variable pxz1 equal 4.67666971933169e-05
variable tmp equal pyz
variable pyz1 equal ${tmp}
variable pyz1 equal -0.0001052329144105

# Compute elastic constant from pressure tensor

variable C1pos equal ${d1}
variable C1pos equal 0.0034995400912137
variable C2pos equal ${d2}
variable C2pos equal -0.000632378131015364
variable C3pos equal ${d3}
variable C3pos equal 0.00137810453481517
variable C4pos equal ${d4}
variable C4pos equal 0.000105232912262154
variable C5pos equal ${d5}
variable C5pos equal -4.67666930303979e-05
variable C6pos equal ${d6}
variable C6pos equal 10.6261330358559

# Combine positive and negative

variable C1${dir} equal 0.5*(${C1neg}+${C1pos})
variable C16 equal 0.5*(${C1neg}+${C1pos})
variable C16 equal 0.5*(-0.00349535975656177+${C1pos})
variable C16 equal 0.5*(-0.00349535975656177+0.0034995400912137)
variable C2${dir} equal 0.5*(${C2neg}+${C2pos})
variable C26 equal 0.5*(${C2neg}+${C2pos})
variable C26 equal 0.5*(0.000628197649579646+${C2pos})
variable C26 equal 0.5*(0.000628197649579646+-0.000632378131015364)
variable C3${dir} equal 0.5*(${C3neg}+${C3pos})
variable C36 equal 0.5*(${C3neg}+${C3pos})
variable C36 equal 0.5*(-0.00137810463352976+${C3pos})
variable C36 equal 0.5*(-0.00137810463352976+0.00137810453481517)
variable C4${dir} equal 0.5*(${C4neg}+${C4pos})
variable C46 equal 0.5*(${C4neg}+${C4pos})
variable C46 equal 0.5*(-0.000101441483621834+${C4pos})
variable C46 equal 0.5*(-0.000101441483621834+0.000105232912262154)
variable C5${dir} equal 0.5*(${C5neg}+${C5pos})
variable C56 equal 0.5*(${C5neg}+${C5pos})
variable C56 equal 0.5*(5.46303264066688e-05+${C5pos})
variable C56 equal 0.5*(5.46303264066688e-05+-4.67666930303979e-05)
variable C6${dir} equal 0.5*(${C6neg}+${C6pos})
variable C66 equal 0.5*(${C6neg}+${C6pos})
variable C66 equal 0.5*(10.6261330363469+${C6pos})
variable C66 equal 0.5*(10.6261330363469+10.6261330358559)

# Delete dir to make sure it is not reused

variable dir delete

# Output final values

variable C11all equal ${C11}
variable C11all equal 89.7499936744275
variable C22all equal ${C22}
variable C22all equal 89.7500351102632
variable C33all equal ${C33}
variable C33all equal 93.7288650869126

variable C12all equal 0.5*(${C12}+${C21})
variable C12all equal 0.5*(46.6696528812744+${C21})
variable C12all equal 0.5*(46.6696528812744+46.6696943362156)
variable C13all equal 0.5*(${C13}+${C31})
variable C13all equal 0.5*(36.9150145915812+${C31})
variable C13all equal 0.5*(36.9150145915812+36.9150500387637)
variable C23all equal 0.5*(${C23}+${C32})
variable C23all equal 0.5*(36.9150727467883+${C32})
variable C23all equal 0.5*(36.9150727467883+36.9150500694947)

variable C44all equal ${C44}
variable C44all equal 7.92799729037026
variable C55all equal ${C55}
variable C55all equal 7.92798572757273
variable C66all equal ${C66}
variable C66all equal 10.6261330361014

variable C14all equal 0.5*(${C14}+${C41})
variable C14all equal 0.5*(-2.74420777614899e-05+${C41})
variable C14all equal 0.5*(-2.74420777614899e-05+1.07594023047266e-05)
variable C15all equal 0.5*(${C15}+${C51})
variable C15all equal 0.5*(1.0521765496365e-05+${C51})
variable C15all equal 0.5*(1.0521765496365e-05+1.62301940503647e-05)
variable C16all equal 0.5*(${C16}+${C61})
variable C16all equal 0.5*(2.0901673259651e-06+${C61})
variable C16all equal 0.5*(2.0901673259651e-06+6.95605156271775e-15)

variable C24all equal 0.5*(${C24}+${C42})
variable C24all equal 0.5*(2.74457920002001e-05+${C42})
variable C24all equal 0.5*(2.74457920002001e-05+-1.04568396122721e-05)
variable C25all equal 0.5*(${C25}+${C52})
variable C25all equal 0.5*(-1.05337678640797e-05+${C52})
variable C25all equal 0.5*(-1.05337678640797e-05+-8.5007706369586e-06)
variable C26all equal 0.5*(${C26}+${C62})
variable C26all equal 0.5*(-2.09024071785901e-06+${C62})
variable C26all equal 0.5*(-2.09024071785901e-06+-1.72981192867871e-14)

variable C34all equal 0.5*(${C34}+${C43})
variable C34all equal 0.5*(-1.72303501002648e-09+${C43})
variable C34all equal 0.5*(-1.72303501002648e-09+1.34755600638601e-06)
variable C35all equal 0.5*(${C35}+${C53})
variable C35all equal 0.5*(6.31593561001634e-09+${C53})
variable C35all equal 0.5*(6.31593561001634e-09+-6.54607247847849e-07)
variable C36all equal 0.5*(${C36}+${C63})
variable C36all equal 0.5*(-4.93572949438609e-11+${C63})
variable C36all equal 0.5*(-4.93572949438609e-11+6.63634839862049e-13)

variable C45all equal 0.5*(${C45}+${C54})
variable C45all equal 0.5*(1.99193601032808e-06+${C54})
variable C45all equal 0.5*(1.99193601032808e-06+5.21485338877709e-07)
variable C46all equal 0.5*(${C46}+${C64})
variable C46all equal 0.5*(1.89571432016e-06+${C64})
variable C46all equal 0.5*(1.89571432016e-06+-5.91333238796294e-12)
variable C56all equal 0.5*(${C56}+${C65})
variable C56all equal 0.5*(3.93181668813545e-06+${C65})
variable C56all equal 0.5*(3.93181668813545e-06+-2.15266343576025e-11)

# Average moduli for cubic crystals

variable C11cubic equal (${C11all}+${C22all}+${C33all})/3.0
variable C11cubic equal (89.7499936744275+${C22all}+${C33all})/3.0
variable C11cubic equal (89.7499936744275+89.7500351102632+${C33all})/3.0
variable C11cubic equal (89.7499936744275+89.7500351102632+93.7288650869126)/3.0
variable C12cubic equal (${C12all}+${C13all}+${C23all})/3.0
variable C12cubic equal (46.669673608745+${C13all}+${C23all})/3.0
variable C12cubic equal (46.669673608745+36.9150323151725+${C23all})/3.0
variable C12cubic equal (46.669673608745+36.9150323151725+36.9150614081415)/3.0
variable C44cubic equal (${C44all}+${C55all}+${C66all})/3.0
variable C44cubic equal (7.92799729037026+${C55all}+${C66all})/3.0
variable C44cubic equal (7.92799729037026+7.92798572757273+${C66all})/3.0
variable C44cubic equal (7.92799729037026+7.92798572757273+10.6261330361014)/3.0

variable bulkmodulus equal (${C11cubic}+2*${C12cubic})/3.0
variable bulkmodulus equal (91.0762979572011+2*${C12cubic})/3.0
variable bulkmodulus equal (91.0762979572011+2*40.1665891106863)/3.0
variable shearmodulus1 equal ${C44cubic}
variable shearmodulus1 equal 8.8273720180148
variable shearmodulus2 equal (${C11cubic}-${C12cubic})/2.0
variable shearmodulus2 equal (91.0762979572011-${C12cubic})/2.0
variable shearmodulus2 equal (91.0762979572011-40.1665891106863)/2.0
variable poissonratio equal 1.0/(1.0+${C11cubic}/${C12cubic})
variable poissonratio equal 1.0/(1.0+91.0762979572011/${C12cubic})
variable poissonratio equal 1.0/(1.0+91.0762979572011/40.1665891106863)

# For Stillinger-Weber silicon, the analytical results
# are known to be (E. R. Cowley, 1988):
#               C11 = 151.4 GPa
#               C12 = 76.4 GPa
#               C44 = 56.4 GPa

print "========================================="
=========================================
print "Components of the Elastic Constant Tensor"
Components of the Elastic Constant Tensor
print "========================================="
=========================================

print "Elastic Constant C11all = ${C11all} ${cunits}"
Elastic Constant C11all = 89.7499936744275 GPa
print "Elastic Constant C22all = ${C22all} ${cunits}"
Elastic Constant C22all = 89.7500351102632 GPa
print "Elastic Constant C33all = ${C33all} ${cunits}"
Elastic Constant C33all = 93.7288650869126 GPa

print "Elastic Constant C12all = ${C12all} ${cunits}"
Elastic Constant C12all = 46.669673608745 GPa
print "Elastic Constant C13all = ${C13all} ${cunits}"
Elastic Constant C13all = 36.9150323151725 GPa
print "Elastic Constant C23all = ${C23all} ${cunits}"
Elastic Constant C23all = 36.9150614081415 GPa

print "Elastic Constant C44all = ${C44all} ${cunits}"
Elastic Constant C44all = 7.92799729037026 GPa
print "Elastic Constant C55all = ${C55all} ${cunits}"
Elastic Constant C55all = 7.92798572757273 GPa
print "Elastic Constant C66all = ${C66all} ${cunits}"
Elastic Constant C66all = 10.6261330361014 GPa

print "Elastic Constant C14all = ${C14all} ${cunits}"
Elastic Constant C14all = -8.34133772838165e-06 GPa
print "Elastic Constant C15all = ${C15all} ${cunits}"
Elastic Constant C15all = 1.33759797733648e-05 GPa
print "Elastic Constant C16all = ${C16all} ${cunits}"
Elastic Constant C16all = 1.04508366646058e-06 GPa

print "Elastic Constant C24all = ${C24all} ${cunits}"
Elastic Constant C24all = 8.494476193964e-06 GPa
print "Elastic Constant C25all = ${C25all} ${cunits}"
Elastic Constant C25all = -9.51726925051915e-06 GPa
print "Elastic Constant C26all = ${C26all} ${cunits}"
Elastic Constant C26all = -1.04512036757856e-06 GPa

print "Elastic Constant C34all = ${C34all} ${cunits}"
Elastic Constant C34all = 6.72916485687992e-07 GPa
print "Elastic Constant C35all = ${C35all} ${cunits}"
Elastic Constant C35all = -3.24145656118916e-07 GPa
print "Elastic Constant C36all = ${C36all} ${cunits}"
Elastic Constant C36all = -2.43468300519994e-11 GPa

print "Elastic Constant C45all = ${C45all} ${cunits}"
Elastic Constant C45all = 1.25671067460289e-06 GPa
print "Elastic Constant C46all = ${C46all} ${cunits}"
Elastic Constant C46all = 9.47854203413806e-07 GPa
print "Elastic Constant C56all = ${C56all} ${cunits}"
Elastic Constant C56all = 1.96589758075055e-06 GPa

print "========================================="
=========================================
print "Average properties for a cubic crystal"
Average properties for a cubic crystal
print "========================================="
=========================================

print "Bulk Modulus = ${bulkmodulus} ${cunits}"
Bulk Modulus = 57.1364920595246 GPa
print "Shear Modulus 1 = ${shearmodulus1} ${cunits}"
Shear Modulus 1 = 8.8273720180148 GPa
print "Shear Modulus 2 = ${shearmodulus2} ${cunits}"
Shear Modulus 2 = 25.4548544232574 GPa
print "Poisson Ratio = ${poissonratio}"
Poisson Ratio = 0.306047741009458
Total wall time: 0:00:00
