Loading intel/2025.3
  Loading requirement: advisor/2025.4 ccl/2022.0.0 tbb/2022.3
    compiler-rt/2025.3.2 umf/1.0.2 compiler/2025.3.2 debugger/2025.3.1
    dev-utilities/2025.3.0 dnnl/3.9.1 dpct/2025.3.0 dpl/2022.10
    intel_ipp_intel64/2022.3 intel_ippcp_intel64/2025.3 ishmem/1.5.0 mkl/2025.3
    mpi/2021.17 vtune/2025.8

################################
##      Job Information       ##
################################
Job ID: 242658.pbs
Job Name: jobA.sh
Queue: A_S
Work Directory: <WORK_DIR>/slab_101_L12_Relax


The number of threads in each node for OpenMP parallelization is 2.


*******************************************************
*******************************************************
 Welcome to OpenMX   Ver. 3.9.9                           
 Copyright (C), 2002-2019, T. Ozaki                    
 OpenMX comes with ABSOLUTELY NO WARRANTY.             
 This is free software, and you are welcome to         
 redistribute it under the constitution of the GNU-GPL.
*******************************************************
*******************************************************



<Input_std>  Your input file was normally read.
<Input_std>  The system includes 1 species and 48 atoms.

*******************************************************
                     PAO and VPS                       
*******************************************************

<SetPara_DFT>  PAOs of species Sn were normally found.
<SetPara_DFT>  VPSs of species Sn were normally found.
               Sn_PBE19.vps is j-dependent.
               In case of scf.SpinOrbit.Coupling=off,
               j-dependent pseudo potentials are averaged by j-degeneracy,
               which corresponds to a scalar relativistic treatment.

*******************************************************
     Fourier transform of PAO and projectors of VNL    
*******************************************************

<FT_PAO>          Fourier transform of pseudo atomic orbitals
<FT_NLP>          Fourier transform of non-local projectors
<FT_ProExpn_VNA>  Fourier transform of VNA separable projectors
<FT_VNA>          Fourier transform of VNA potentials
<FT_ProductPAO>   Fourier transform of product of PAOs

*******************************************************
  Allocation of atoms to processors at MD_iter=    1     
*******************************************************

 proc =   0  # of atoms=   1  estimated weight=         1.00000
 proc =   1  # of atoms=   1  estimated weight=         1.00000
 proc =   2  # of atoms=   1  estimated weight=         1.00000
 proc =   3  # of atoms=   1  estimated weight=         1.00000
 proc =   4  # of atoms=   1  estimated weight=         1.00000
 proc =   5  # of atoms=   1  estimated weight=         1.00000
 proc =   6  # of atoms=   1  estimated weight=         1.00000
 proc =   7  # of atoms=   1  estimated weight=         1.00000
 proc =   8  # of atoms=   1  estimated weight=         1.00000
 proc =   9  # of atoms=   1  estimated weight=         1.00000
 proc =  10  # of atoms=   1  estimated weight=         1.00000
 proc =  11  # of atoms=   1  estimated weight=         1.00000
 proc =  12  # of atoms=   1  estimated weight=         1.00000
 proc =  13  # of atoms=   1  estimated weight=         1.00000
 proc =  14  # of atoms=   1  estimated weight=         1.00000
 proc =  15  # of atoms=   1  estimated weight=         1.00000
 proc =  16  # of atoms=   1  estimated weight=         1.00000
 proc =  17  # of atoms=   1  estimated weight=         1.00000
 proc =  18  # of atoms=   1  estimated weight=         1.00000
 proc =  19  # of atoms=   1  estimated weight=         1.00000
 proc =  20  # of atoms=   1  estimated weight=         1.00000
 proc =  21  # of atoms=   1  estimated weight=         1.00000
 proc =  22  # of atoms=   1  estimated weight=         1.00000
 proc =  23  # of atoms=   1  estimated weight=         1.00000
 proc =  24  # of atoms=   1  estimated weight=         1.00000
 proc =  25  # of atoms=   1  estimated weight=         1.00000
 proc =  26  # of atoms=   1  estimated weight=         1.00000
 proc =  27  # of atoms=   1  estimated weight=         1.00000
 proc =  28  # of atoms=   1  estimated weight=         1.00000
 proc =  29  # of atoms=   1  estimated weight=         1.00000
 proc =  30  # of atoms=   1  estimated weight=         1.00000
 proc =  31  # of atoms=   1  estimated weight=         1.00000
 proc =  32  # of atoms=   1  estimated weight=         1.00000
 proc =  33  # of atoms=   1  estimated weight=         1.00000
 proc =  34  # of atoms=   1  estimated weight=         1.00000
 proc =  35  # of atoms=   1  estimated weight=         1.00000
 proc =  36  # of atoms=   1  estimated weight=         1.00000
 proc =  37  # of atoms=   1  estimated weight=         1.00000
 proc =  38  # of atoms=   1  estimated weight=         1.00000
 proc =  39  # of atoms=   1  estimated weight=         1.00000
 proc =  40  # of atoms=   1  estimated weight=         1.00000
 proc =  41  # of atoms=   1  estimated weight=         1.00000
 proc =  42  # of atoms=   1  estimated weight=         1.00000
 proc =  43  # of atoms=   1  estimated weight=         1.00000
 proc =  44  # of atoms=   1  estimated weight=         1.00000
 proc =  45  # of atoms=   1  estimated weight=         1.00000
 proc =  46  # of atoms=   1  estimated weight=         1.00000
 proc =  47  # of atoms=   1  estimated weight=         1.00000
 proc =  48  # of atoms=   0  estimated weight=         0.00000
 proc =  49  # of atoms=   0  estimated weight=         0.00000
 proc =  50  # of atoms=   0  estimated weight=         0.00000
 proc =  51  # of atoms=   0  estimated weight=         0.00000
 proc =  52  # of atoms=   0  estimated weight=         0.00000
 proc =  53  # of atoms=   0  estimated weight=         0.00000
 proc =  54  # of atoms=   0  estimated weight=         0.00000
 proc =  55  # of atoms=   0  estimated weight=         0.00000
 proc =  56  # of atoms=   0  estimated weight=         0.00000
 proc =  57  # of atoms=   0  estimated weight=         0.00000
 proc =  58  # of atoms=   0  estimated weight=         0.00000
 proc =  59  # of atoms=   0  estimated weight=         0.00000
 proc =  60  # of atoms=   0  estimated weight=         0.00000
 proc =  61  # of atoms=   0  estimated weight=         0.00000
 proc =  62  # of atoms=   0  estimated weight=         0.00000
 proc =  63  # of atoms=   0  estimated weight=         0.00000
 proc =  64  # of atoms=   0  estimated weight=         0.00000
 proc =  65  # of atoms=   0  estimated weight=         0.00000
 proc =  66  # of atoms=   0  estimated weight=         0.00000
 proc =  67  # of atoms=   0  estimated weight=         0.00000
 proc =  68  # of atoms=   0  estimated weight=         0.00000
 proc =  69  # of atoms=   0  estimated weight=         0.00000
 proc =  70  # of atoms=   0  estimated weight=         0.00000
 proc =  71  # of atoms=   0  estimated weight=         0.00000
 proc =  72  # of atoms=   0  estimated weight=         0.00000
 proc =  73  # of atoms=   0  estimated weight=         0.00000
 proc =  74  # of atoms=   0  estimated weight=         0.00000
 proc =  75  # of atoms=   0  estimated weight=         0.00000
 proc =  76  # of atoms=   0  estimated weight=         0.00000
 proc =  77  # of atoms=   0  estimated weight=         0.00000
 proc =  78  # of atoms=   0  estimated weight=         0.00000
 proc =  79  # of atoms=   0  estimated weight=         0.00000
 proc =  80  # of atoms=   0  estimated weight=         0.00000
 proc =  81  # of atoms=   0  estimated weight=         0.00000
 proc =  82  # of atoms=   0  estimated weight=         0.00000
 proc =  83  # of atoms=   0  estimated weight=         0.00000
 proc =  84  # of atoms=   0  estimated weight=         0.00000
 proc =  85  # of atoms=   0  estimated weight=         0.00000
 proc =  86  # of atoms=   0  estimated weight=         0.00000
 proc =  87  # of atoms=   0  estimated weight=         0.00000
 proc =  88  # of atoms=   0  estimated weight=         0.00000
 proc =  89  # of atoms=   0  estimated weight=         0.00000
 proc =  90  # of atoms=   0  estimated weight=         0.00000
 proc =  91  # of atoms=   0  estimated weight=         0.00000
 proc =  92  # of atoms=   0  estimated weight=         0.00000
 proc =  93  # of atoms=   0  estimated weight=         0.00000
 proc =  94  # of atoms=   0  estimated weight=         0.00000
 proc =  95  # of atoms=   0  estimated weight=         0.00000
 proc =  96  # of atoms=   0  estimated weight=         0.00000
 proc =  97  # of atoms=   0  estimated weight=         0.00000
 proc =  98  # of atoms=   0  estimated weight=         0.00000
 proc =  99  # of atoms=   0  estimated weight=         0.00000
 proc = 100  # of atoms=   0  estimated weight=         0.00000
 proc = 101  # of atoms=   0  estimated weight=         0.00000
 proc = 102  # of atoms=   0  estimated weight=         0.00000
 proc = 103  # of atoms=   0  estimated weight=         0.00000
 proc = 104  # of atoms=   0  estimated weight=         0.00000
 proc = 105  # of atoms=   0  estimated weight=         0.00000
 proc = 106  # of atoms=   0  estimated weight=         0.00000
 proc = 107  # of atoms=   0  estimated weight=         0.00000
 proc = 108  # of atoms=   0  estimated weight=         0.00000
 proc = 109  # of atoms=   0  estimated weight=         0.00000
 proc = 110  # of atoms=   0  estimated weight=         0.00000
 proc = 111  # of atoms=   0  estimated weight=         0.00000
 proc = 112  # of atoms=   0  estimated weight=         0.00000
 proc = 113  # of atoms=   0  estimated weight=         0.00000
 proc = 114  # of atoms=   0  estimated weight=         0.00000
 proc = 115  # of atoms=   0  estimated weight=         0.00000
 proc = 116  # of atoms=   0  estimated weight=         0.00000
 proc = 117  # of atoms=   0  estimated weight=         0.00000
 proc = 118  # of atoms=   0  estimated weight=         0.00000
 proc = 119  # of atoms=   0  estimated weight=         0.00000
 proc = 120  # of atoms=   0  estimated weight=         0.00000
 proc = 121  # of atoms=   0  estimated weight=         0.00000
 proc = 122  # of atoms=   0  estimated weight=         0.00000
 proc = 123  # of atoms=   0  estimated weight=         0.00000
 proc = 124  # of atoms=   0  estimated weight=         0.00000
 proc = 125  # of atoms=   0  estimated weight=         0.00000
 proc = 126  # of atoms=   0  estimated weight=         0.00000
 proc = 127  # of atoms=   0  estimated weight=         0.00000




*******************************************************
        Analysis of neighbors and setting of grids        
*******************************************************

TFNAN=    2832   Average FNAN=  59.00000
TSNAN=       0   Average SNAN=   0.00000
<truncation> CpyCell= 1 ct_AN=   1 FNAN SNAN  39   0
<truncation> CpyCell= 1 ct_AN=   2 FNAN SNAN  39   0
<truncation> CpyCell= 1 ct_AN=   3 FNAN SNAN  43   0
<truncation> CpyCell= 1 ct_AN=   4 FNAN SNAN  43   0
<truncation> CpyCell= 1 ct_AN=   5 FNAN SNAN  55   0
<truncation> CpyCell= 1 ct_AN=   6 FNAN SNAN  55   0
<truncation> CpyCell= 1 ct_AN=   7 FNAN SNAN  59   0
<truncation> CpyCell= 1 ct_AN=   8 FNAN SNAN  59   0
<truncation> CpyCell= 1 ct_AN=   9 FNAN SNAN  64   0
<truncation> CpyCell= 1 ct_AN=  10 FNAN SNAN  64   0
<truncation> CpyCell= 1 ct_AN=  11 FNAN SNAN  64   0
<truncation> CpyCell= 1 ct_AN=  12 FNAN SNAN  64   0
<truncation> CpyCell= 1 ct_AN=  13 FNAN SNAN  64   0
<truncation> CpyCell= 1 ct_AN=  14 FNAN SNAN  64   0
<truncation> CpyCell= 1 ct_AN=  15 FNAN SNAN  64   0
<truncation> CpyCell= 1 ct_AN=  16 FNAN SNAN  64   0
<truncation> CpyCell= 1 ct_AN=  17 FNAN SNAN  64   0
<truncation> CpyCell= 1 ct_AN=  18 FNAN SNAN  64   0
<truncation> CpyCell= 1 ct_AN=  19 FNAN SNAN  64   0
<truncation> CpyCell= 1 ct_AN=  20 FNAN SNAN  64   0
     ..........
     ......

TFNAN=    2832   Average FNAN=  59.00000
TSNAN=       0   Average SNAN=   0.00000
<truncation> CpyCell= 2 ct_AN=   1 FNAN SNAN  39   0
<truncation> CpyCell= 2 ct_AN=   2 FNAN SNAN  39   0
<truncation> CpyCell= 2 ct_AN=   3 FNAN SNAN  43   0
<truncation> CpyCell= 2 ct_AN=   4 FNAN SNAN  43   0
<truncation> CpyCell= 2 ct_AN=   5 FNAN SNAN  55   0
<truncation> CpyCell= 2 ct_AN=   6 FNAN SNAN  55   0
<truncation> CpyCell= 2 ct_AN=   7 FNAN SNAN  59   0
<truncation> CpyCell= 2 ct_AN=   8 FNAN SNAN  59   0
<truncation> CpyCell= 2 ct_AN=   9 FNAN SNAN  64   0
<truncation> CpyCell= 2 ct_AN=  10 FNAN SNAN  64   0
<truncation> CpyCell= 2 ct_AN=  11 FNAN SNAN  64   0
<truncation> CpyCell= 2 ct_AN=  12 FNAN SNAN  64   0
<truncation> CpyCell= 2 ct_AN=  13 FNAN SNAN  64   0
<truncation> CpyCell= 2 ct_AN=  14 FNAN SNAN  64   0
<truncation> CpyCell= 2 ct_AN=  15 FNAN SNAN  64   0
<truncation> CpyCell= 2 ct_AN=  16 FNAN SNAN  64   0
<truncation> CpyCell= 2 ct_AN=  17 FNAN SNAN  64   0
<truncation> CpyCell= 2 ct_AN=  18 FNAN SNAN  64   0
<truncation> CpyCell= 2 ct_AN=  19 FNAN SNAN  64   0
<truncation> CpyCell= 2 ct_AN=  20 FNAN SNAN  64   0
     ..........
     ......

TFNAN=    2832   Average FNAN=  59.00000
TSNAN=       0   Average SNAN=   0.00000
<truncation> CpyCell= 2 ct_AN=   1 FNAN SNAN  39   0
<truncation> CpyCell= 2 ct_AN=   2 FNAN SNAN  39   0
<truncation> CpyCell= 2 ct_AN=   3 FNAN SNAN  43   0
<truncation> CpyCell= 2 ct_AN=   4 FNAN SNAN  43   0
<truncation> CpyCell= 2 ct_AN=   5 FNAN SNAN  55   0
<truncation> CpyCell= 2 ct_AN=   6 FNAN SNAN  55   0
<truncation> CpyCell= 2 ct_AN=   7 FNAN SNAN  59   0
<truncation> CpyCell= 2 ct_AN=   8 FNAN SNAN  59   0
<truncation> CpyCell= 2 ct_AN=   9 FNAN SNAN  64   0
<truncation> CpyCell= 2 ct_AN=  10 FNAN SNAN  64   0
<truncation> CpyCell= 2 ct_AN=  11 FNAN SNAN  64   0
<truncation> CpyCell= 2 ct_AN=  12 FNAN SNAN  64   0
<truncation> CpyCell= 2 ct_AN=  13 FNAN SNAN  64   0
<truncation> CpyCell= 2 ct_AN=  14 FNAN SNAN  64   0
<truncation> CpyCell= 2 ct_AN=  15 FNAN SNAN  64   0
<truncation> CpyCell= 2 ct_AN=  16 FNAN SNAN  64   0
<truncation> CpyCell= 2 ct_AN=  17 FNAN SNAN  64   0
<truncation> CpyCell= 2 ct_AN=  18 FNAN SNAN  64   0
<truncation> CpyCell= 2 ct_AN=  19 FNAN SNAN  64   0
<truncation> CpyCell= 2 ct_AN=  20 FNAN SNAN  64   0
     ..........
     ......

<Check_System> The system is slab.
lattice vectors (bohr)
A  = 12.816246376458,  0.000000000000,  0.000000000000
B  =  0.000000000000, 11.281664151816,  0.000000000000
C  =  0.000000000000,  0.000000000000, 116.913019440864
reciprocal lattice vectors (bohr^-1)
RA =  0.490251601180,  0.000000000000,  0.000000000000
RB =  0.000000000000,  0.556937808343,  0.000000000000
RC =  0.000000000000,  0.000000000000,  0.053742391884
Grid_Origin  0.171263411445 -2.707599396436  0.111345912325
Cell_Volume =  16904.288318648021 (Bohr^3)
GridVol     =      0.011499515863 (Bohr^3)
Grid_Origin  0.171263411445 -2.707599396436  0.111345912325
Cell_Volume =  16904.288318648021 (Bohr^3)
GridVol     =      0.011499515863 (Bohr^3)
<UCell_Box> Info. of cutoff energy and num. of grids
lattice vectors (bohr)
A  = 12.816246376458,  0.000000000000,  0.000000000000
B  =  0.000000000000, 11.281664151816,  0.000000000000
C  =  0.000000000000,  0.000000000000, 116.913019440864
reciprocal lattice vectors (bohr^-1)
RA =  0.490251601180,  0.000000000000,  0.000000000000
RB =  0.000000000000,  0.556937808343,  0.000000000000
RC =  0.000000000000,  0.000000000000,  0.053742391884
Required cutoff energy (Ryd) for 3D-grids = 200.0000
    Used cutoff energy (Ryd) for 3D-grids = 188.4318, 193.8623, 199.0181
Num. of grids of a-, b-, and c-axes = 56, 50, 525
Grid_Origin  0.171263411445 -2.707599396436  0.111345912325
Cell_Volume =  16904.288318648021 (Bohr^3)
GridVol     =      0.011499515863 (Bohr^3)
Cell vectors (bohr) of the grid cell (gtv)
  gtv_a =  0.228861542437,  0.000000000000,  0.000000000000
  gtv_b =  0.000000000000,  0.225633283036,  0.000000000000
  gtv_c =  0.000000000000,  0.000000000000,  0.222691465602
  |gtv_a| =  0.228861542437
  |gtv_b| =  0.225633283036
  |gtv_c| =  0.222691465602
Num. of grids overlapping with atom    1 = 124926
Num. of grids overlapping with atom    2 = 124926
Num. of grids overlapping with atom    3 = 124971
Num. of grids overlapping with atom    4 = 124971
Num. of grids overlapping with atom    5 = 124891
Num. of grids overlapping with atom    6 = 124891
Num. of grids overlapping with atom    7 = 124938
Num. of grids overlapping with atom    8 = 124938
Num. of grids overlapping with atom    9 = 124936
Num. of grids overlapping with atom   10 = 124936
Num. of grids overlapping with atom   11 = 124971
Num. of grids overlapping with atom   12 = 124971
Num. of grids overlapping with atom   13 = 124907
Num. of grids overlapping with atom   14 = 124907
Num. of grids overlapping with atom   15 = 124884
Num. of grids overlapping with atom   16 = 124884
Num. of grids overlapping with atom   17 = 124922
Num. of grids overlapping with atom   18 = 124922
Num. of grids overlapping with atom   19 = 124895
Num. of grids overlapping with atom   20 = 124895
     ..........
     ......


*******************************************************
             SCF calculation at MD = 1                
*******************************************************

<MD= 1>  Calculation of the overlap matrix
<MD= 1>  Calculation of the nonlocal matrix
<MD= 1>  Calculation of the VNA projector matrix

******************* MD= 1  SCF= 1 *******************
<Band>  Solving the eigenvalue problem...
 KGrids1:  -0.42857  -0.28571  -0.14286   0.00000   0.14286   0.28572   0.42857 
 KGrids2:  -0.43750  -0.31250  -0.18750  -0.06250   0.06250   0.18750   0.31250   0.43750 
 KGrids3:   0.00000 
<Band_DFT>  Eigen, time=2.508262
<Band_DFT>  DM, time=0.000004
    1   Sn  MulP   6.9693  6.9693 sum  13.9385
    2   Sn  MulP   6.9693  6.9693 sum  13.9385
    3   Sn  MulP   7.0036  7.0036 sum  14.0073
    4   Sn  MulP   7.0036  7.0036 sum  14.0073
    5   Sn  MulP   7.0239  7.0239 sum  14.0477
    6   Sn  MulP   7.0239  7.0239 sum  14.0477
    7   Sn  MulP   7.0082  7.0082 sum  14.0164
    8   Sn  MulP   7.0082  7.0082 sum  14.0164
    9   Sn  MulP   6.9978  6.9978 sum  13.9957
   10   Sn  MulP   6.9978  6.9978 sum  13.9957
   11   Sn  MulP   6.9965  6.9965 sum  13.9930
   12   Sn  MulP   6.9965  6.9965 sum  13.9930
   13   Sn  MulP   7.0052  7.0052 sum  14.0104
   14   Sn  MulP   7.0052  7.0052 sum  14.0104
   15   Sn  MulP   7.0005  7.0005 sum  14.0009
   16   Sn  MulP   7.0005  7.0005 sum  14.0009
   17   Sn  MulP   7.0003  7.0003 sum  14.0006
   18   Sn  MulP   7.0003  7.0003 sum  14.0006
   19   Sn  MulP   6.9969  6.9969 sum  13.9938
   20   Sn  MulP   6.9969  6.9969 sum  13.9938
     ..........
     ......

 Sum of MulP: up   =   336.00000 down          =   336.00000
              total=   672.00000 ideal(neutral)=   672.00000
<DFT>  Total Spin Moment (muB) =  0.000000000000
<DFT>  Mixing_weight= 0.005000000000
<DFT>  Uele   = -495.272682231979  dUele     =   1.000000000000
<DFT>  NormRD =    1.000000000000  Criterion =   0.000000100000

******************* MD= 1  SCF= 2 *******************
<Poisson>  Poisson's equation using FFT...
<Set_Hamiltonian>  Hamiltonian matrix for VNA+dVH+Vxc...
<Band>  Solving the eigenvalue problem...
 KGrids1:  -0.42857  -0.28571  -0.14286   0.00000   0.14286   0.28572   0.42857 
 KGrids2:  -0.43750  -0.31250  -0.18750  -0.06250   0.06250   0.18750   0.31250   0.43750 
 KGrids3:   0.00000 
<Band_DFT>  Eigen, time=0.863694
<Band_DFT>  DM, time=0.000000
    1   Sn  MulP   6.9693  6.9693 sum  13.9385
    2   Sn  MulP   6.9693  6.9693 sum  13.9385
    3   Sn  MulP   7.0036  7.0036 sum  14.0073
    4   Sn  MulP   7.0036  7.0036 sum  14.0073
    5   Sn  MulP   7.0239  7.0239 sum  14.0477
    6   Sn  MulP   7.0239  7.0239 sum  14.0477
    7   Sn  MulP   7.0082  7.0082 sum  14.0164
    8   Sn  MulP   7.0082  7.0082 sum  14.0164
    9   Sn  MulP   6.9978  6.9978 sum  13.9957
   10   Sn  MulP   6.9978  6.9978 sum  13.9957
   11   Sn  MulP   6.9965  6.9965 sum  13.9930
   12   Sn  MulP   6.9965  6.9965 sum  13.9930
   13   Sn  MulP   7.0052  7.0052 sum  14.0104
   14   Sn  MulP   7.0052  7.0052 sum  14.0104
   15   Sn  MulP   7.0005  7.0005 sum  14.0009
   16   Sn  MulP   7.0005  7.0005 sum  14.0009
   17   Sn  MulP   7.0003  7.0003 sum  14.0006
   18   Sn  MulP   7.0003  7.0003 sum  14.0006
   19   Sn  MulP   6.9969  6.9969 sum  13.9938
   20   Sn  MulP   6.9969  6.9969 sum  13.9938
     ..........
     ......

 Sum of MulP: up   =   336.00000 down          =   336.00000
              total=   672.00000 ideal(neutral)=   672.00000
<DFT>  Total Spin Moment (muB) =  0.000000000000
<DFT>  Mixing_weight= 0.030000000000
<DFT>  Uele   = -495.272682231978  dUele     =   0.000000000001
<DFT>  NormRD =    0.982761785400  Criterion =   0.000000100000

******************* MD= 1  SCF= 3 *******************
<Poisson>  Poisson's equation using FFT...
<Set_Hamiltonian>  Hamiltonian matrix for VNA+dVH+Vxc...
<Band>  Solving the eigenvalue problem...
 KGrids1:  -0.42857  -0.28571  -0.14286   0.00000   0.14286   0.28572   0.42857 
 KGrids2:  -0.43750  -0.31250  -0.18750  -0.06250   0.06250   0.18750   0.31250   0.43750 
 KGrids3:   0.00000 
<Band_DFT>  Eigen, time=0.765240
<Band_DFT>  DM, time=0.000000
    1   Sn  MulP   6.9717  6.9717 sum  13.9434
    2   Sn  MulP   6.9717  6.9717 sum  13.9434
    3   Sn  MulP   7.0035  7.0035 sum  14.0070
    4   Sn  MulP   7.0035  7.0035 sum  14.0070
    5   Sn  MulP   7.0225  7.0225 sum  14.0450
    6   Sn  MulP   7.0225  7.0225 sum  14.0450
    7   Sn  MulP   7.0069  7.0069 sum  14.0137
    8   Sn  MulP   7.0069  7.0069 sum  14.0137
    9   Sn  MulP   6.9973  6.9973 sum  13.9945
   10   Sn  MulP   6.9973  6.9973 sum  13.9945
   11   Sn  MulP   6.9962  6.9962 sum  13.9924
   12   Sn  MulP   6.9962  6.9962 sum  13.9924
   13   Sn  MulP   7.0048  7.0048 sum  14.0096
   14   Sn  MulP   7.0048  7.0048 sum  14.0096
   15   Sn  MulP   7.0003  7.0003 sum  14.0007
   16   Sn  MulP   7.0003  7.0003 sum  14.0007
   17   Sn  MulP   7.0005  7.0005 sum  14.0009
   18   Sn  MulP   7.0005  7.0005 sum  14.0009
   19   Sn  MulP   6.9973  6.9973 sum  13.9946
   20   Sn  MulP   6.9973  6.9973 sum  13.9946
     ..........
     ......

 Sum of MulP: up   =   336.00000 down          =   336.00000
              total=   672.00000 ideal(neutral)=   672.00000
<DFT>  Total Spin Moment (muB) =  0.000000000000
<DFT>  Mixing_weight= 0.030000000000
<DFT>  Uele   = -495.639451640166  dUele     =   0.366769408188
<DFT>  NormRD =    0.943837498513  Criterion =   0.000000100000

******************* MD= 1  SCF= 4 *******************
<Poisson>  Poisson's equation using FFT...
<Set_Hamiltonian>  Hamiltonian matrix for VNA+dVH+Vxc...
<Band>  Solving the eigenvalue problem...
 KGrids1:  -0.42857  -0.28571  -0.14286   0.00000   0.14286   0.28572   0.42857 
 KGrids2:  -0.43750  -0.31250  -0.18750  -0.06250   0.06250   0.18750   0.31250   0.43750 
 KGrids3:   0.00000 
<Band_DFT>  Eigen, time=0.849339
<Band_DFT>  DM, time=0.000000
    1   Sn  MulP   6.9739  6.9739 sum  13.9479
    2   Sn  MulP   6.9739  6.9739 sum  13.9479
    3   Sn  MulP   7.0034  7.0034 sum  14.0068
    4   Sn  MulP   7.0034  7.0034 sum  14.0068
    5   Sn  MulP   7.0214  7.0214 sum  14.0429
    6   Sn  MulP   7.0214  7.0214 sum  14.0429
    7   Sn  MulP   7.0058  7.0058 sum  14.0117
    8   Sn  MulP   7.0058  7.0058 sum  14.0117
    9   Sn  MulP   6.9969  6.9969 sum  13.9939
   10   Sn  MulP   6.9969  6.9969 sum  13.9939
   11   Sn  MulP   6.9961  6.9961 sum  13.9921
   12   Sn  MulP   6.9961  6.9961 sum  13.9921
   13   Sn  MulP   7.0045  7.0045 sum  14.0089
   14   Sn  MulP   7.0045  7.0045 sum  14.0089
   15   Sn  MulP   7.0002  7.0002 sum  14.0005
   16   Sn  MulP   7.0002  7.0002 sum  14.0005
   17   Sn  MulP   7.0005  7.0005 sum  14.0010
   18   Sn  MulP   7.0005  7.0005 sum  14.0010
   19   Sn  MulP   6.9975  6.9975 sum  13.9951
   20   Sn  MulP   6.9975  6.9975 sum  13.9951
     ..........
     ......

 Sum of MulP: up   =   336.00000 down          =   336.00000
              total=   672.00000 ideal(neutral)=   672.00000
<DFT>  Total Spin Moment (muB) =  0.000000000000
<DFT>  Mixing_weight= 0.030000000000
<DFT>  Uele   = -495.990354925321  dUele     =   0.350903285154
<DFT>  NormRD =    0.906707007073  Criterion =   0.000000100000

******************* MD= 1  SCF= 5 *******************
<Poisson>  Poisson's equation using FFT...
<Set_Hamiltonian>  Hamiltonian matrix for VNA+dVH+Vxc...
<Band>  Solving the eigenvalue problem...
 KGrids1:  -0.42857  -0.28571  -0.14286   0.00000   0.14286   0.28572   0.42857 
 KGrids2:  -0.43750  -0.31250  -0.18750  -0.06250   0.06250   0.18750   0.31250   0.43750 
 KGrids3:   0.00000 
<Band_DFT>  Eigen, time=0.750118
<Band_DFT>  DM, time=0.000000
    1   Sn  MulP   6.9759  6.9759 sum  13.9518
    2   Sn  MulP   6.9759  6.9759 sum  13.9518
    3   Sn  MulP   7.0032  7.0032 sum  14.0064
    4   Sn  MulP   7.0032  7.0032 sum  14.0064
    5   Sn  MulP   7.0205  7.0205 sum  14.0410
    6   Sn  MulP   7.0205  7.0205 sum  14.0410
    7   Sn  MulP   7.0050  7.0050 sum  14.0099
    8   Sn  MulP   7.0050  7.0050 sum  14.0099
    9   Sn  MulP   6.9968  6.9968 sum  13.9935
   10   Sn  MulP   6.9968  6.9968 sum  13.9935
   11   Sn  MulP   6.9960  6.9960 sum  13.9921
   12   Sn  MulP   6.9960  6.9960 sum  13.9921
   13   Sn  MulP   7.0042  7.0042 sum  14.0084
   14   Sn  MulP   7.0042  7.0042 sum  14.0084
   15   Sn  MulP   7.0002  7.0002 sum  14.0003
   16   Sn  MulP   7.0002  7.0002 sum  14.0003
   17   Sn  MulP   7.0005  7.0005 sum  14.0009
   18   Sn  MulP   7.0005  7.0005 sum  14.0009
   19   Sn  MulP   6.9977  6.9977 sum  13.9954
   20   Sn  MulP   6.9977  6.9977 sum  13.9954
     ..........
     ......

 Sum of MulP: up   =   336.00000 down          =   336.00000
              total=   672.00000 ideal(neutral)=   672.00000
<DFT>  Total Spin Moment (muB) =  0.000000000000
<DFT>  Mixing_weight= 0.030000000000
<DFT>  Uele   = -496.329174310401  dUele     =   0.338819385081
<DFT>  NormRD =    0.871237100674  Criterion =   0.000000100000

******************* MD= 1  SCF= 6 *******************
<Poisson>  Poisson's equation using FFT...
<Set_Hamiltonian>  Hamiltonian matrix for VNA+dVH+Vxc...
<Band>  Solving the eigenvalue problem...
 KGrids1:  -0.42857  -0.28571  -0.14286   0.00000   0.14286   0.28572   0.42857 
 KGrids2:  -0.43750  -0.31250  -0.18750  -0.06250   0.06250   0.18750   0.31250   0.43750 
 KGrids3:   0.00000 
<Band_DFT>  Eigen, time=0.751451
<Band_DFT>  DM, time=0.000001
    1   Sn  MulP   6.9776  6.9776 sum  13.9552
    2   Sn  MulP   6.9776  6.9776 sum  13.9552
    3   Sn  MulP   7.0029  7.0029 sum  14.0059
    4   Sn  MulP   7.0029  7.0029 sum  14.0059
    5   Sn  MulP   7.0197  7.0197 sum  14.0394
    6   Sn  MulP   7.0197  7.0197 sum  14.0394
    7   Sn  MulP   7.0042  7.0042 sum  14.0085
    8   Sn  MulP   7.0042  7.0042 sum  14.0085
    9   Sn  MulP   6.9967  6.9967 sum  13.9934
   10   Sn  MulP   6.9967  6.9967 sum  13.9934
   11   Sn  MulP   6.9961  6.9961 sum  13.9922
   12   Sn  MulP   6.9961  6.9961 sum  13.9922
   13   Sn  MulP   7.0040  7.0040 sum  14.0081
   14   Sn  MulP   7.0040  7.0040 sum  14.0081
   15   Sn  MulP   7.0002  7.0002 sum  14.0003
   16   Sn  MulP   7.0002  7.0002 sum  14.0003
   17   Sn  MulP   7.0005  7.0005 sum  14.0009
   18   Sn  MulP   7.0005  7.0005 sum  14.0009
   19   Sn  MulP   6.9978  6.9978 sum  13.9956
   20   Sn  MulP   6.9978  6.9978 sum  13.9956
     ..........
     ......

 Sum of MulP: up   =   336.00000 down          =   336.00000
              total=   672.00000 ideal(neutral)=   672.00000
<DFT>  Total Spin Moment (muB) =  0.000000000000
<DFT>  Mixing_weight= 0.030000000000
<DFT>  Uele   = -496.656066644557  dUele     =   0.326892334156
<DFT>  NormRD =    0.837330894320  Criterion =   0.000000100000

******************* MD= 1  SCF= 7 *******************
<Poisson>  Poisson's equation using FFT...
<Set_Hamiltonian>  Hamiltonian matrix for VNA+dVH+Vxc...
<Band>  Solving the eigenvalue problem...
 KGrids1:  -0.42857  -0.28571  -0.14286   0.00000   0.14286   0.28572   0.42857 
 KGrids2:  -0.43750  -0.31250  -0.18750  -0.06250   0.06250   0.18750   0.31250   0.43750 
 KGrids3:   0.00000 
<Band_DFT>  Eigen, time=0.758757
<Band_DFT>  DM, time=0.000000
    1   Sn  MulP   6.9791  6.9791 sum  13.9581
    2   Sn  MulP   6.9791  6.9791 sum  13.9581
    3   Sn  MulP   7.0026  7.0026 sum  14.0053
    4   Sn  MulP   7.0026  7.0026 sum  14.0053
    5   Sn  MulP   7.0190  7.0190 sum  14.0380
    6   Sn  MulP   7.0190  7.0190 sum  14.0380
    7   Sn  MulP   7.0036  7.0036 sum  14.0073
    8   Sn  MulP   7.0036  7.0036 sum  14.0073
    9   Sn  MulP   6.9967  6.9967 sum  13.9933
   10   Sn  MulP   6.9967  6.9967 sum  13.9933
   11   Sn  MulP   6.9962  6.9962 sum  13.9924
   12   Sn  MulP   6.9962  6.9962 sum  13.9924
   13   Sn  MulP   7.0039  7.0039 sum  14.0078
   14   Sn  MulP   7.0039  7.0039 sum  14.0078
   15   Sn  MulP   7.0002  7.0002 sum  14.0003
   16   Sn  MulP   7.0002  7.0002 sum  14.0003
   17   Sn  MulP   7.0004  7.0004 sum  14.0009
   18   Sn  MulP   7.0004  7.0004 sum  14.0009
   19   Sn  MulP   6.9979  6.9979 sum  13.9958
   20   Sn  MulP   6.9979  6.9979 sum  13.9958
     ..........
     ......

 Sum of MulP: up   =   336.00000 down          =   336.00000
              total=   672.00000 ideal(neutral)=   672.00000
<DFT>  Total Spin Moment (muB) =  0.000000000000
<DFT>  Mixing_weight= 0.030000000000
<DFT>  Uele   = -496.970772801227  dUele     =   0.314706156670
<DFT>  NormRD =    0.804905820243  Criterion =   0.000000100000

******************* MD= 1  SCF= 8 *******************
<Poisson>  Poisson's equation using FFT...
<Set_Hamiltonian>  Hamiltonian matrix for VNA+dVH+Vxc...
<Band>  Solving the eigenvalue problem...
 KGrids1:  -0.42857  -0.28571  -0.14286   0.00000   0.14286   0.28572   0.42857 
 KGrids2:  -0.43750  -0.31250  -0.18750  -0.06250   0.06250   0.18750   0.31250   0.43750 
 KGrids3:   0.00000 
<Band_DFT>  Eigen, time=0.752116
<Band_DFT>  DM, time=0.000000
    1   Sn  MulP   6.9804  6.9804 sum  13.9607
    2   Sn  MulP   6.9804  6.9804 sum  13.9607
    3   Sn  MulP   7.0023  7.0023 sum  14.0047
    4   Sn  MulP   7.0023  7.0023 sum  14.0047
    5   Sn  MulP   7.0184  7.0184 sum  14.0367
    6   Sn  MulP   7.0184  7.0184 sum  14.0367
    7   Sn  MulP   7.0031  7.0031 sum  14.0062
    8   Sn  MulP   7.0031  7.0031 sum  14.0062
    9   Sn  MulP   6.9967  6.9967 sum  13.9934
   10   Sn  MulP   6.9967  6.9967 sum  13.9934
   11   Sn  MulP   6.9963  6.9963 sum  13.9927
   12   Sn  MulP   6.9963  6.9963 sum  13.9927
   13   Sn  MulP   7.0038  7.0038 sum  14.0075
   14   Sn  MulP   7.0038  7.0038 sum  14.0075
   15   Sn  MulP   7.0002  7.0002 sum  14.0003
   16   Sn  MulP   7.0002  7.0002 sum  14.0003
   17   Sn  MulP   7.0004  7.0004 sum  14.0008
   18   Sn  MulP   7.0004  7.0004 sum  14.0008
   19   Sn  MulP   6.9980  6.9980 sum  13.9959
   20   Sn  MulP   6.9980  6.9980 sum  13.9959
     ..........
     ......

 Sum of MulP: up   =   336.00000 down          =   336.00000
              total=   672.00000 ideal(neutral)=   672.00000
<DFT>  Total Spin Moment (muB) =  0.000000000000
<DFT>  Mixing_weight= 0.030000000000
<DFT>  Uele   = -497.273152631187  dUele     =   0.302379829960
<DFT>  NormRD =    0.773887671827  Criterion =   0.000000100000

******************* MD= 1  SCF= 9 *******************
<Poisson>  Poisson's equation using FFT...
<Set_Hamiltonian>  Hamiltonian matrix for VNA+dVH+Vxc...
<Band>  Solving the eigenvalue problem...
 KGrids1:  -0.42857  -0.28571  -0.14286   0.00000   0.14286   0.28572   0.42857 
 KGrids2:  -0.43750  -0.31250  -0.18750  -0.06250   0.06250   0.18750   0.31250   0.43750 
 KGrids3:   0.00000 
<Band_DFT>  Eigen, time=0.750786
<Band_DFT>  DM, time=0.000000
    1   Sn  MulP   6.9815  6.9815 sum  13.9630
    2   Sn  MulP   6.9815  6.9815 sum  13.9630
    3   Sn  MulP   7.0020  7.0020 sum  14.0040
    4   Sn  MulP   7.0020  7.0020 sum  14.0040
    5   Sn  MulP   7.0178  7.0178 sum  14.0356
    6   Sn  MulP   7.0178  7.0178 sum  14.0356
    7   Sn  MulP   7.0026  7.0026 sum  14.0053
    8   Sn  MulP   7.0026  7.0026 sum  14.0053
    9   Sn  MulP   6.9967  6.9967 sum  13.9935
   10   Sn  MulP   6.9967  6.9967 sum  13.9935
   11   Sn  MulP   6.9965  6.9965 sum  13.9930
   12   Sn  MulP   6.9965  6.9965 sum  13.9930
   13   Sn  MulP   7.0036  7.0036 sum  14.0073
   14   Sn  MulP   7.0036  7.0036 sum  14.0073
   15   Sn  MulP   7.0002  7.0002 sum  14.0004
   16   Sn  MulP   7.0002  7.0002 sum  14.0004
   17   Sn  MulP   7.0004  7.0004 sum  14.0008
   18   Sn  MulP   7.0004  7.0004 sum  14.0008
   19   Sn  MulP   6.9980  6.9980 sum  13.9961
   20   Sn  MulP   6.9980  6.9980 sum  13.9961
     ..........
     ......

 Sum of MulP: up   =   336.00000 down          =   336.00000
              total=   672.00000 ideal(neutral)=   672.00000
<DFT>  Total Spin Moment (muB) =  0.000000000000
<DFT>  Mixing_weight= 0.030000000000
<DFT>  Uele   = -497.563227841599  dUele     =   0.290075210411
<DFT>  NormRD =    0.744208094792  Criterion =   0.000000100000

******************* MD= 1  SCF=10 *******************
<Poisson>  Poisson's equation using FFT...
<Set_Hamiltonian>  Hamiltonian matrix for VNA+dVH+Vxc...
<Band>  Solving the eigenvalue problem...
 KGrids1:  -0.42857  -0.28571  -0.14286   0.00000   0.14286   0.28572   0.42857 
 KGrids2:  -0.43750  -0.31250  -0.18750  -0.06250   0.06250   0.18750   0.31250   0.43750 
 KGrids3:   0.00000 
<Band_DFT>  Eigen, time=0.762337
<Band_DFT>  DM, time=0.000000
    1   Sn  MulP   6.9826  6.9826 sum  13.9651
    2   Sn  MulP   6.9826  6.9826 sum  13.9651
    3   Sn  MulP   7.0017  7.0017 sum  14.0033
    4   Sn  MulP   7.0017  7.0017 sum  14.0033
    5   Sn  MulP   7.0173  7.0173 sum  14.0346
    6   Sn  MulP   7.0173  7.0173 sum  14.0346
    7   Sn  MulP   7.0022  7.0022 sum  14.0045
    8   Sn  MulP   7.0022  7.0022 sum  14.0045
    9   Sn  MulP   6.9968  6.9968 sum  13.9936
   10   Sn  MulP   6.9968  6.9968 sum  13.9936
   11   Sn  MulP   6.9966  6.9966 sum  13.9933
   12   Sn  MulP   6.9966  6.9966 sum  13.9933
   13   Sn  MulP   7.0035  7.0035 sum  14.0071
   14   Sn  MulP   7.0036  7.0036 sum  14.0071
   15   Sn  MulP   7.0002  7.0002 sum  14.0004
   16   Sn  MulP   7.0002  7.0002 sum  14.0004
   17   Sn  MulP   7.0004  7.0004 sum  14.0007
   18   Sn  MulP   7.0004  7.0004 sum  14.0007
   19   Sn  MulP   6.9981  6.9981 sum  13.9962
   20   Sn  MulP   6.9981  6.9981 sum  13.9962
     ..........
     ......

 Sum of MulP: up   =   336.00000 down          =   336.00000
              total=   672.00000 ideal(neutral)=   672.00000
<DFT>  Total Spin Moment (muB) =  0.000000000000
<DFT>  Mixing_weight= 0.030000000000
<DFT>  Uele   = -497.841147519023  dUele     =   0.277919677425
<DFT>  NormRD =    0.715803285005  Criterion =   0.000000100000

******************* MD= 1  SCF=11 *******************
<Poisson>  Poisson's equation using FFT...
<Set_Hamiltonian>  Hamiltonian matrix for VNA+dVH+Vxc...
<Band>  Solving the eigenvalue problem...
 KGrids1:  -0.42857  -0.28571  -0.14286   0.00000   0.14286   0.28572   0.42857 
 KGrids2:  -0.43750  -0.31250  -0.18750  -0.06250   0.06250   0.18750   0.31250   0.43750 
 KGrids3:   0.00000 
<Band_DFT>  Eigen, time=0.745407
<Band_DFT>  DM, time=0.000000
    1   Sn  MulP   6.9835  6.9835 sum  13.9670
    2   Sn  MulP   6.9835  6.9835 sum  13.9670
    3   Sn  MulP   7.0013  7.0013 sum  14.0026
    4   Sn  MulP   7.0013  7.0013 sum  14.0026
    5   Sn  MulP   7.0168  7.0168 sum  14.0337
    6   Sn  MulP   7.0168  7.0168 sum  14.0337
    7   Sn  MulP   7.0019  7.0019 sum  14.0038
    8   Sn  MulP   7.0019  7.0019 sum  14.0038
    9   Sn  MulP   6.9969  6.9969 sum  13.9938
   10   Sn  MulP   6.9969  6.9969 sum  13.9938
   11   Sn  MulP   6.9968  6.9968 sum  13.9936
   12   Sn  MulP   6.9968  6.9968 sum  13.9936
   13   Sn  MulP   7.0035  7.0035 sum  14.0069
   14   Sn  MulP   7.0035  7.0035 sum  14.0069
   15   Sn  MulP   7.0002  7.0002 sum  14.0005
   16   Sn  MulP   7.0002  7.0002 sum  14.0005
   17   Sn  MulP   7.0003  7.0003 sum  14.0007
   18   Sn  MulP   7.0003  7.0003 sum  14.0007
   19   Sn  MulP   6.9981  6.9981 sum  13.9963
   20   Sn  MulP   6.9981  6.9981 sum  13.9963
     ..........
     ......

 Sum of MulP: up   =   336.00000 down          =   336.00000
              total=   672.00000 ideal(neutral)=   672.00000
<DFT>  Total Spin Moment (muB) =  0.000000000000
<DFT>  Mixing_weight= 0.030000000000
<DFT>  Uele   = -498.107151008924  dUele     =   0.266003489901
<DFT>  NormRD =    0.688613232380  Criterion =   0.000000100000

******************* MD= 1  SCF=12 *******************
<Poisson>  Poisson's equation using FFT...
<Set_Hamiltonian>  Hamiltonian matrix for VNA+dVH+Vxc...
<Band>  Solving the eigenvalue problem...
 KGrids1:  -0.42857  -0.28571  -0.14286   0.00000   0.14286   0.28572   0.42857 
 KGrids2:  -0.43750  -0.31250  -0.18750  -0.06250   0.06250   0.18750   0.31250   0.43750 
 KGrids3:   0.00000 
<Band_DFT>  Eigen, time=0.843949
<Band_DFT>  DM, time=0.000000
    1   Sn  MulP   6.9843  6.9843 sum  13.9687
    2   Sn  MulP   6.9843  6.9843 sum  13.9687
    3   Sn  MulP   7.0010  7.0010 sum  14.0020
    4   Sn  MulP   7.0010  7.0010 sum  14.0020
    5   Sn  MulP   7.0164  7.0164 sum  14.0329
    6   Sn  MulP   7.0164  7.0164 sum  14.0329
    7   Sn  MulP   7.0016  7.0016 sum  14.0032
    8   Sn  MulP   7.0016  7.0016 sum  14.0032
    9   Sn  MulP   6.9970  6.9970 sum  13.9940
   10   Sn  MulP   6.9970  6.9970 sum  13.9940
   11   Sn  MulP   6.9969  6.9969 sum  13.9939
   12   Sn  MulP   6.9969  6.9969 sum  13.9939
   13   Sn  MulP   7.0034  7.0034 sum  14.0067
   14   Sn  MulP   7.0034  7.0034 sum  14.0067
   15   Sn  MulP   7.0003  7.0003 sum  14.0005
   16   Sn  MulP   7.0003  7.0003 sum  14.0005
   17   Sn  MulP   7.0003  7.0003 sum  14.0006
   18   Sn  MulP   7.0003  7.0003 sum  14.0006
   19   Sn  MulP   6.9982  6.9982 sum  13.9964
   20   Sn  MulP   6.9982  6.9982 sum  13.9964
     ..........
     ......

 Sum of MulP: up   =   336.00000 down          =   336.00000
              total=   672.00000 ideal(neutral)=   672.00000
<DFT>  Total Spin Moment (muB) =  0.000000000000
<DFT>  Mixing_weight= 0.030000000000
<DFT>  Uele   = -498.361538959805  dUele     =   0.254387950881
<DFT>  NormRD =    0.662581240217  Criterion =   0.000000100000

******************* MD= 1  SCF=13 *******************
<Poisson>  Poisson's equation using FFT...
<Set_Hamiltonian>  Hamiltonian matrix for VNA+dVH+Vxc...
<Band>  Solving the eigenvalue problem...
 KGrids1:  -0.42857  -0.28571  -0.14286   0.00000   0.14286   0.28572   0.42857 
 KGrids2:  -0.43750  -0.31250  -0.18750  -0.06250   0.06250   0.18750   0.31250   0.43750 
 KGrids3:   0.00000 
<Band_DFT>  Eigen, time=0.753133
<Band_DFT>  DM, time=0.000000
    1   Sn  MulP   6.9851  6.9851 sum  13.9702
    2   Sn  MulP   6.9851  6.9851 sum  13.9702
    3   Sn  MulP   7.0007  7.0007 sum  14.0013
    4   Sn  MulP   7.0007  7.0007 sum  14.0013
    5   Sn  MulP   7.0161  7.0161 sum  14.0321
    6   Sn  MulP   7.0161  7.0161 sum  14.0321
    7   Sn  MulP   7.0013  7.0013 sum  14.0027
    8   Sn  MulP   7.0013  7.0013 sum  14.0027
    9   Sn  MulP   6.9971  6.9971 sum  13.9941
   10   Sn  MulP   6.9971  6.9971 sum  13.9941
   11   Sn  MulP   6.9971  6.9971 sum  13.9941
   12   Sn  MulP   6.9971  6.9971 sum  13.9941
   13   Sn  MulP   7.0033  7.0033 sum  14.0066
   14   Sn  MulP   7.0033  7.0033 sum  14.0066
   15   Sn  MulP   7.0003  7.0003 sum  14.0005
   16   Sn  MulP   7.0003  7.0003 sum  14.0005
   17   Sn  MulP   7.0003  7.0003 sum  14.0006
   18   Sn  MulP   7.0003  7.0003 sum  14.0006
   19   Sn  MulP   6.9982  6.9982 sum  13.9964
   20   Sn  MulP   6.9982  6.9982 sum  13.9964
     ..........
     ......

 Sum of MulP: up   =   336.00000 down          =   336.00000
              total=   672.00000 ideal(neutral)=   672.00000
<DFT>  Total Spin Moment (muB) =  0.000000000000
<DFT>  Mixing_weight= 0.030000000000
<DFT>  Uele   = -498.604652124625  dUele     =   0.243113164820
<DFT>  NormRD =    0.637653595041  Criterion =   0.000000100000

******************* MD= 1  SCF=14 *******************
<Poisson>  Poisson's equation using FFT...
<Set_Hamiltonian>  Hamiltonian matrix for VNA+dVH+Vxc...
<Band>  Solving the eigenvalue problem...
 KGrids1:  -0.42857  -0.28571  -0.14286   0.00000   0.14286   0.28572   0.42857 
 KGrids2:  -0.43750  -0.31250  -0.18750  -0.06250   0.06250   0.18750   0.31250   0.43750 
 KGrids3:   0.00000 
<Band_DFT>  Eigen, time=0.759853
<Band_DFT>  DM, time=0.000000
    1   Sn  MulP   6.9858  6.9858 sum  13.9717
    2   Sn  MulP   6.9858  6.9858 sum  13.9717
    3   Sn  MulP   7.0004  7.0004 sum  14.0007
    4   Sn  MulP   7.0004  7.0004 sum  14.0007
    5   Sn  MulP   7.0157  7.0157 sum  14.0315
    6   Sn  MulP   7.0157  7.0157 sum  14.0315
    7   Sn  MulP   7.0011  7.0011 sum  14.0022
    8   Sn  MulP   7.0011  7.0011 sum  14.0022
    9   Sn  MulP   6.9971  6.9971 sum  13.9943
   10   Sn  MulP   6.9971  6.9971 sum  13.9943
   11   Sn  MulP   6.9972  6.9972 sum  13.9944
   12   Sn  MulP   6.9972  6.9972 sum  13.9944
   13   Sn  MulP   7.0032  7.0032 sum  14.0064
   14   Sn  MulP   7.0032  7.0032 sum  14.0064
   15   Sn  MulP   7.0003  7.0003 sum  14.0006
   16   Sn  MulP   7.0003  7.0003 sum  14.0006
   17   Sn  MulP   7.0003  7.0003 sum  14.0005
   18   Sn  MulP   7.0003  7.0003 sum  14.0005
   19   Sn  MulP   6.9983  6.9983 sum  13.9965
   20   Sn  MulP   6.9983  6.9983 sum  13.9965
     ..........
     ......

 Sum of MulP: up   =   336.00000 down          =   336.00000
              total=   672.00000 ideal(neutral)=   672.00000
<DFT>  Total Spin Moment (muB) =  0.000000000000
<DFT>  Mixing_weight= 0.030000000000
<DFT>  Uele   = -498.836856076950  dUele     =   0.232203952325
<DFT>  NormRD =    0.613779321756  Criterion =   0.000000100000

******************* MD= 1  SCF=15 *******************
<Poisson>  Poisson's equation using FFT...
<Set_Hamiltonian>  Hamiltonian matrix for VNA+dVH+Vxc...
<Band>  Solving the eigenvalue problem...
 KGrids1:  -0.42857  -0.28571  -0.14286   0.00000   0.14286   0.28572   0.42857 
 KGrids2:  -0.43750  -0.31250  -0.18750  -0.06250   0.06250   0.18750   0.31250   0.43750 
 KGrids3:   0.00000 
<Band_DFT>  Eigen, time=0.843215
<Band_DFT>  DM, time=0.000000
    1   Sn  MulP   6.9865  6.9865 sum  13.9730
    2   Sn  MulP   6.9865  6.9865 sum  13.9730
    3   Sn  MulP   7.0001  7.0001 sum  14.0001
    4   Sn  MulP   7.0001  7.0001 sum  14.0001
    5   Sn  MulP   7.0154  7.0154 sum  14.0309
    6   Sn  MulP   7.0154  7.0154 sum  14.0309
    7   Sn  MulP   7.0009  7.0009 sum  14.0018
    8   Sn  MulP   7.0009  7.0009 sum  14.0018
    9   Sn  MulP   6.9972  6.9972 sum  13.9945
   10   Sn  MulP   6.9972  6.9972 sum  13.9945
   11   Sn  MulP   6.9973  6.9973 sum  13.9946
   12   Sn  MulP   6.9973  6.9973 sum  13.9946
   13   Sn  MulP   7.0031  7.0031 sum  14.0063
   14   Sn  MulP   7.0031  7.0031 sum  14.0063
   15   Sn  MulP   7.0003  7.0003 sum  14.0006
   16   Sn  MulP   7.0003  7.0003 sum  14.0006
   17   Sn  MulP   7.0003  7.0003 sum  14.0005
   18   Sn  MulP   7.0003  7.0003 sum  14.0005
   19   Sn  MulP   6.9983  6.9983 sum  13.9966
   20   Sn  MulP   6.9983  6.9983 sum  13.9966
     ..........
     ......

 Sum of MulP: up   =   336.00000 down          =   336.00000
              total=   672.00000 ideal(neutral)=   672.00000
<DFT>  Total Spin Moment (muB) =  0.000000000000
<DFT>  Mixing_weight= 0.030000000000
<DFT>  Uele   = -499.058530241850  dUele     =   0.221674164900
<DFT>  NormRD =    0.590909989370  Criterion =   0.000000100000

******************* MD= 1  SCF=16 *******************
<Poisson>  Poisson's equation using FFT...
<Set_Hamiltonian>  Hamiltonian matrix for VNA+dVH+Vxc...
<Band>  Solving the eigenvalue problem...
 KGrids1:  -0.42857  -0.28571  -0.14286   0.00000   0.14286   0.28572   0.42857 
 KGrids2:  -0.43750  -0.31250  -0.18750  -0.06250   0.06250   0.18750   0.31250   0.43750 
 KGrids3:   0.00000 
<Band_DFT>  Eigen, time=0.842802
<Band_DFT>  DM, time=0.000000
    1   Sn  MulP   6.9871  6.9871 sum  13.9742
    2   Sn  MulP   6.9871  6.9871 sum  13.9742
    3   Sn  MulP   6.9998  6.9998 sum  13.9996
    4   Sn  MulP   6.9998  6.9998 sum  13.9996
    5   Sn  MulP   7.0152  7.0152 sum  14.0303
    6   Sn  MulP   7.0152  7.0152 sum  14.0303
    7   Sn  MulP   7.0007  7.0007 sum  14.0014
    8   Sn  MulP   7.0007  7.0007 sum  14.0014
    9   Sn  MulP   6.9973  6.9973 sum  13.9946
   10   Sn  MulP   6.9973  6.9973 sum  13.9946
   11   Sn  MulP   6.9974  6.9974 sum  13.9949
   12   Sn  MulP   6.9974  6.9974 sum  13.9949
   13   Sn  MulP   7.0031  7.0031 sum  14.0061
   14   Sn  MulP   7.0031  7.0031 sum  14.0061
   15   Sn  MulP   7.0003  7.0003 sum  14.0006
   16   Sn  MulP   7.0003  7.0003 sum  14.0006
   17   Sn  MulP   7.0002  7.0002 sum  14.0005
   18   Sn  MulP   7.0002  7.0002 sum  14.0005
   19   Sn  MulP   6.9983  6.9983 sum  13.9967
   20   Sn  MulP   6.9983  6.9983 sum  13.9967
     ..........
     ......

 Sum of MulP: up   =   336.00000 down          =   336.00000
              total=   672.00000 ideal(neutral)=   672.00000
<DFT>  Total Spin Moment (muB) =  0.000000000000
<DFT>  Mixing_weight= 0.030000000000
<DFT>  Uele   = -499.270060036143  dUele     =   0.211529794293
<DFT>  NormRD =    0.568999549169  Criterion =   0.000000100000

******************* MD= 1  SCF=17 *******************
<Poisson>  Poisson's equation using FFT...
<Set_Hamiltonian>  Hamiltonian matrix for VNA+dVH+Vxc...
<Band>  Solving the eigenvalue problem...
 KGrids1:  -0.42857  -0.28571  -0.14286   0.00000   0.14286   0.28572   0.42857 
 KGrids2:  -0.43750  -0.31250  -0.18750  -0.06250   0.06250   0.18750   0.31250   0.43750 
 KGrids3:   0.00000 
<Band_DFT>  Eigen, time=0.755292
<Band_DFT>  DM, time=0.000000
    1   Sn  MulP   6.9877  6.9877 sum  13.9753
    2   Sn  MulP   6.9877  6.9877 sum  13.9753
    3   Sn  MulP   6.9995  6.9995 sum  13.9990
    4   Sn  MulP   6.9995  6.9995 sum  13.9990
    5   Sn  MulP   7.0149  7.0149 sum  14.0299
    6   Sn  MulP   7.0149  7.0149 sum  14.0299
    7   Sn  MulP   7.0005  7.0005 sum  14.0011
    8   Sn  MulP   7.0005  7.0005 sum  14.0011
    9   Sn  MulP   6.9974  6.9974 sum  13.9948
   10   Sn  MulP   6.9974  6.9974 sum  13.9948
   11   Sn  MulP   6.9975  6.9975 sum  13.9951
   12   Sn  MulP   6.9975  6.9975 sum  13.9951
   13   Sn  MulP   7.0030  7.0030 sum  14.0060
   14   Sn  MulP   7.0030  7.0030 sum  14.0060
   15   Sn  MulP   7.0003  7.0003 sum  14.0006
   16   Sn  MulP   7.0003  7.0003 sum  14.0006
   17   Sn  MulP   7.0002  7.0002 sum  14.0004
   18   Sn  MulP   7.0002  7.0002 sum  14.0004
   19   Sn  MulP   6.9984  6.9984 sum  13.9967
   20   Sn  MulP   6.9984  6.9984 sum  13.9967
     ..........
     ......

 Sum of MulP: up   =   336.00000 down          =   336.00000
              total=   672.00000 ideal(neutral)=   672.00000
<DFT>  Total Spin Moment (muB) =  0.000000000000
<DFT>  Mixing_weight= 0.030000000000
<DFT>  Uele   = -499.471831254910  dUele     =   0.201771218766
<DFT>  NormRD =    0.548004193640  Criterion =   0.000000100000

******************* MD= 1  SCF=18 *******************
<Poisson>  Poisson's equation using FFT...
<Set_Hamiltonian>  Hamiltonian matrix for VNA+dVH+Vxc...
<Band>  Solving the eigenvalue problem...
 KGrids1:  -0.42857  -0.28571  -0.14286   0.00000   0.14286   0.28572   0.42857 
 KGrids2:  -0.43750  -0.31250  -0.18750  -0.06250   0.06250   0.18750   0.31250   0.43750 
 KGrids3:   0.00000 
<Band_DFT>  Eigen, time=0.842816
<Band_DFT>  DM, time=0.000000
    1   Sn  MulP   6.9882  6.9882 sum  13.9764
    2   Sn  MulP   6.9882  6.9882 sum  13.9764
    3   Sn  MulP   6.9993  6.9993 sum  13.9985
    4   Sn  MulP   6.9993  6.9993 sum  13.9985
    5   Sn  MulP   7.0147  7.0147 sum  14.0294
    6   Sn  MulP   7.0147  7.0147 sum  14.0294
    7   Sn  MulP   7.0004  7.0004 sum  14.0008
    8   Sn  MulP   7.0004  7.0004 sum  14.0008
    9   Sn  MulP   6.9975  6.9975 sum  13.9949
   10   Sn  MulP   6.9975  6.9975 sum  13.9949
   11   Sn  MulP   6.9976  6.9976 sum  13.9952
   12   Sn  MulP   6.9976  6.9976 sum  13.9952
   13   Sn  MulP   7.0029  7.0029 sum  14.0058
   14   Sn  MulP   7.0029  7.0029 sum  14.0058
   15   Sn  MulP   7.0003  7.0003 sum  14.0006
   16   Sn  MulP   7.0003  7.0003 sum  14.0006
   17   Sn  MulP   7.0002  7.0002 sum  14.0004
   18   Sn  MulP   7.0002  7.0002 sum  14.0004
   19   Sn  MulP   6.9984  6.9984 sum  13.9968
   20   Sn  MulP   6.9984  6.9984 sum  13.9968
     ..........
     ......

 Sum of MulP: up   =   336.00000 down          =   336.00000
              total=   672.00000 ideal(neutral)=   672.00000
<DFT>  Total Spin Moment (muB) =  0.000000000000
<DFT>  Mixing_weight= 0.030000000000
<DFT>  Uele   = -499.664226080953  dUele     =   0.192394826043
<DFT>  NormRD =    0.527882231581  Criterion =   0.000000100000

******************* MD= 1  SCF=19 *******************
<Poisson>  Poisson's equation using FFT...
<Set_Hamiltonian>  Hamiltonian matrix for VNA+dVH+Vxc...
<Band>  Solving the eigenvalue problem...
 KGrids1:  -0.42857  -0.28571  -0.14286   0.00000   0.14286   0.28572   0.42857 
 KGrids2:  -0.43750  -0.31250  -0.18750  -0.06250   0.06250   0.18750   0.31250   0.43750 
 KGrids3:   0.00000 
<Band_DFT>  Eigen, time=0.782182
<Band_DFT>  DM, time=0.000000
    1   Sn  MulP   6.9887  6.9887 sum  13.9774
    2   Sn  MulP   6.9887  6.9887 sum  13.9774
    3   Sn  MulP   6.9990  6.9990 sum  13.9980
    4   Sn  MulP   6.9990  6.9990 sum  13.9980
    5   Sn  MulP   7.0145  7.0145 sum  14.0290
    6   Sn  MulP   7.0145  7.0145 sum  14.0290
    7   Sn  MulP   7.0003  7.0003 sum  14.0005
    8   Sn  MulP   7.0003  7.0003 sum  14.0005
    9   Sn  MulP   6.9975  6.9975 sum  13.9950
   10   Sn  MulP   6.9975  6.9975 sum  13.9950
   11   Sn  MulP   6.9977  6.9977 sum  13.9954
   12   Sn  MulP   6.9977  6.9977 sum  13.9954
   13   Sn  MulP   7.0028  7.0028 sum  14.0057
   14   Sn  MulP   7.0028  7.0028 sum  14.0057
   15   Sn  MulP   7.0003  7.0003 sum  14.0006
   16   Sn  MulP   7.0003  7.0003 sum  14.0006
   17   Sn  MulP   7.0002  7.0002 sum  14.0004
   18   Sn  MulP   7.0002  7.0002 sum  14.0004
   19   Sn  MulP   6.9984  6.9984 sum  13.9968
   20   Sn  MulP   6.9984  6.9984 sum  13.9968
     ..........
     ......

 Sum of MulP: up   =   336.00000 down          =   336.00000
              total=   672.00000 ideal(neutral)=   672.00000
<DFT>  Total Spin Moment (muB) =  0.000000000000
<DFT>  Mixing_weight= 0.030000000000
<DFT>  Uele   = -499.847620269974  dUele     =   0.183394189021
<DFT>  NormRD =    0.508593973700  Criterion =   0.000000100000

******************* MD= 1  SCF=20 *******************
<Poisson>  Poisson's equation using FFT...
<Set_Hamiltonian>  Hamiltonian matrix for VNA+dVH+Vxc...
<Band>  Solving the eigenvalue problem...
 KGrids1:  -0.42857  -0.28571  -0.14286   0.00000   0.14286   0.28572   0.42857 
 KGrids2:  -0.43750  -0.31250  -0.18750  -0.06250   0.06250   0.18750   0.31250   0.43750 
 KGrids3:   0.00000 
<Band_DFT>  Eigen, time=0.894200
<Band_DFT>  DM, time=0.000000
    1   Sn  MulP   6.9891  6.9891 sum  13.9783
    2   Sn  MulP   6.9891  6.9891 sum  13.9783
    3   Sn  MulP   6.9988  6.9988 sum  13.9976
    4   Sn  MulP   6.9988  6.9988 sum  13.9976
    5   Sn  MulP   7.0143  7.0143 sum  14.0286
    6   Sn  MulP   7.0143  7.0143 sum  14.0286
    7   Sn  MulP   7.0001  7.0001 sum  14.0003
    8   Sn  MulP   7.0001  7.0001 sum  14.0003
    9   Sn  MulP   6.9976  6.9976 sum  13.9952
   10   Sn  MulP   6.9976  6.9976 sum  13.9952
   11   Sn  MulP   6.9978  6.9978 sum  13.9956
   12   Sn  MulP   6.9978  6.9978 sum  13.9956
   13   Sn  MulP   7.0028  7.0028 sum  14.0056
   14   Sn  MulP   7.0028  7.0028 sum  14.0056
   15   Sn  MulP   7.0003  7.0003 sum  14.0006
   16   Sn  MulP   7.0003  7.0003 sum  14.0006
   17   Sn  MulP   7.0002  7.0002 sum  14.0003
   18   Sn  MulP   7.0002  7.0002 sum  14.0003
   19   Sn  MulP   6.9984  6.9984 sum  13.9969
   20   Sn  MulP   6.9984  6.9984 sum  13.9969
     ..........
     ......

 Sum of MulP: up   =   336.00000 down          =   336.00000
              total=   672.00000 ideal(neutral)=   672.00000
<DFT>  Total Spin Moment (muB) =  0.000000000000
<DFT>  Mixing_weight= 0.030000000000
<DFT>  Uele   = -500.022381190482  dUele     =   0.174760920507
<DFT>  NormRD =    0.490101628032  Criterion =   0.000000100000

******************* MD= 1  SCF=21 *******************
<Poisson>  Poisson's equation using FFT...
<Set_Hamiltonian>  Hamiltonian matrix for VNA+dVH+Vxc...
<Band>  Solving the eigenvalue problem...
 KGrids1:  -0.42857  -0.28571  -0.14286   0.00000   0.14286   0.28572   0.42857 
 KGrids2:  -0.43750  -0.31250  -0.18750  -0.06250   0.06250   0.18750   0.31250   0.43750 
 KGrids3:   0.00000 
<Band_DFT>  Eigen, time=0.894488
<Band_DFT>  DM, time=0.000000
    1   Sn  MulP   6.9896  6.9896 sum  13.9791
    2   Sn  MulP   6.9896  6.9896 sum  13.9791
    3   Sn  MulP   6.9986  6.9986 sum  13.9971
    4   Sn  MulP   6.9986  6.9986 sum  13.9971
    5   Sn  MulP   7.0141  7.0141 sum  14.0283
    6   Sn  MulP   7.0141  7.0141 sum  14.0283
    7   Sn  MulP   7.0000  7.0000 sum  14.0000
    8   Sn  MulP   7.0000  7.0000 sum  14.0000
    9   Sn  MulP   6.9976  6.9976 sum  13.9953
   10   Sn  MulP   6.9976  6.9976 sum  13.9953
   11   Sn  MulP   6.9979  6.9979 sum  13.9957
   12   Sn  MulP   6.9979  6.9979 sum  13.9957
   13   Sn  MulP   7.0027  7.0027 sum  14.0054
   14   Sn  MulP   7.0027  7.0027 sum  14.0054
   15   Sn  MulP   7.0003  7.0003 sum  14.0006
   16   Sn  MulP   7.0003  7.0003 sum  14.0006
   17   Sn  MulP   7.0002  7.0002 sum  14.0003
   18   Sn  MulP   7.0002  7.0002 sum  14.0003
   19   Sn  MulP   6.9985  6.9985 sum  13.9969
   20   Sn  MulP   6.9985  6.9985 sum  13.9969
     ..........
     ......

 Sum of MulP: up   =   336.00000 down          =   336.00000
              total=   672.00000 ideal(neutral)=   672.00000
<DFT>  Total Spin Moment (muB) =  0.000000000000
<DFT>  Mixing_weight= 0.030000000000
<DFT>  Uele   = -500.188866490062  dUele     =   0.166485299580
<DFT>  NormRD =    0.472369202851  Criterion =   0.000000100000

******************* MD= 1  SCF=22 *******************
<Poisson>  Poisson's equation using FFT...
<Set_Hamiltonian>  Hamiltonian matrix for VNA+dVH+Vxc...
<Band>  Solving the eigenvalue problem...
 KGrids1:  -0.42857  -0.28571  -0.14286   0.00000   0.14286   0.28572   0.42857 
 KGrids2:  -0.43750  -0.31250  -0.18750  -0.06250   0.06250   0.18750   0.31250   0.43750 
 KGrids3:   0.00000 
<Band_DFT>  Eigen, time=1.000430
<Band_DFT>  DM, time=0.000000
    1   Sn  MulP   6.9900  6.9900 sum  13.9799
    2   Sn  MulP   6.9900  6.9900 sum  13.9799
    3   Sn  MulP   6.9984  6.9984 sum  13.9967
    4   Sn  MulP   6.9984  6.9984 sum  13.9967
    5   Sn  MulP   7.0140  7.0140 sum  14.0280
    6   Sn  MulP   7.0140  7.0140 sum  14.0280
    7   Sn  MulP   6.9999  6.9999 sum  13.9998
    8   Sn  MulP   6.9999  6.9999 sum  13.9998
    9   Sn  MulP   6.9977  6.9977 sum  13.9954
   10   Sn  MulP   6.9977  6.9977 sum  13.9954
   11   Sn  MulP   6.9979  6.9979 sum  13.9959
   12   Sn  MulP   6.9979  6.9979 sum  13.9959
   13   Sn  MulP   7.0027  7.0027 sum  14.0053
   14   Sn  MulP   7.0027  7.0027 sum  14.0053
   15   Sn  MulP   7.0003  7.0003 sum  14.0006
   16   Sn  MulP   7.0003  7.0003 sum  14.0006
   17   Sn  MulP   7.0001  7.0001 sum  14.0003
   18   Sn  MulP   7.0001  7.0001 sum  14.0003
   19   Sn  MulP   6.9985  6.9985 sum  13.9970
   20   Sn  MulP   6.9985  6.9985 sum  13.9970
     ..........
     ......

 Sum of MulP: up   =   336.00000 down          =   336.00000
              total=   672.00000 ideal(neutral)=   672.00000
<DFT>  Total Spin Moment (muB) =  0.000000000000
<DFT>  Mixing_weight= 0.030000000000
<DFT>  Uele   = -500.347423215335  dUele     =   0.158556725273
<DFT>  NormRD =    0.455362415560  Criterion =   0.000000100000

******************* MD= 1  SCF=23 *******************
<Poisson>  Poisson's equation using FFT...
<Set_Hamiltonian>  Hamiltonian matrix for VNA+dVH+Vxc...
<Band>  Solving the eigenvalue problem...
 KGrids1:  -0.42857  -0.28571  -0.14286   0.00000   0.14286   0.28572   0.42857 
 KGrids2:  -0.43750  -0.31250  -0.18750  -0.06250   0.06250   0.18750   0.31250   0.43750 
 KGrids3:   0.00000 
<Band_DFT>  Eigen, time=0.749218
<Band_DFT>  DM, time=0.000000
    1   Sn  MulP   6.9904  6.9904 sum  13.9807
    2   Sn  MulP   6.9904  6.9904 sum  13.9807
    3   Sn  MulP   6.9982  6.9982 sum  13.9963
    4   Sn  MulP   6.9982  6.9982 sum  13.9963
    5   Sn  MulP   7.0138  7.0138 sum  14.0277
    6   Sn  MulP   7.0138  7.0138 sum  14.0277
    7   Sn  MulP   6.9998  6.9998 sum  13.9997
    8   Sn  MulP   6.9998  6.9998 sum  13.9997
    9   Sn  MulP   6.9977  6.9977 sum  13.9955
   10   Sn  MulP   6.9977  6.9977 sum  13.9955
   11   Sn  MulP   6.9980  6.9980 sum  13.9960
   12   Sn  MulP   6.9980  6.9980 sum  13.9960
   13   Sn  MulP   7.0026  7.0026 sum  14.0052
   14   Sn  MulP   7.0026  7.0026 sum  14.0052
   15   Sn  MulP   7.0003  7.0003 sum  14.0006
   16   Sn  MulP   7.0003  7.0003 sum  14.0006
   17   Sn  MulP   7.0001  7.0001 sum  14.0003
   18   Sn  MulP   7.0001  7.0001 sum  14.0003
   19   Sn  MulP   6.9985  6.9985 sum  13.9970
   20   Sn  MulP   6.9985  6.9985 sum  13.9970
     ..........
     ......

 Sum of MulP: up   =   336.00000 down          =   336.00000
              total=   672.00000 ideal(neutral)=   672.00000
<DFT>  Total Spin Moment (muB) =  0.000000000000
<DFT>  Mixing_weight= 0.030000000000
<DFT>  Uele   = -500.498387267761  dUele     =   0.150964052426
<DFT>  NormRD =    0.439048607841  Criterion =   0.000000100000

******************* MD= 1  SCF=24 *******************
<Poisson>  Poisson's equation using FFT...
<Set_Hamiltonian>  Hamiltonian matrix for VNA+dVH+Vxc...
<Band>  Solving the eigenvalue problem...
 KGrids1:  -0.42857  -0.28571  -0.14286   0.00000   0.14286   0.28572   0.42857 
 KGrids2:  -0.43750  -0.31250  -0.18750  -0.06250   0.06250   0.18750   0.31250   0.43750 
 KGrids3:   0.00000 
<Band_DFT>  Eigen, time=0.976204
<Band_DFT>  DM, time=0.000000
    1   Sn  MulP   6.9907  6.9907 sum  13.9814
    2   Sn  MulP   6.9907  6.9907 sum  13.9814
    3   Sn  MulP   6.9980  6.9980 sum  13.9960
    4   Sn  MulP   6.9980  6.9980 sum  13.9960
    5   Sn  MulP   7.0137  7.0137 sum  14.0274
    6   Sn  MulP   7.0137  7.0137 sum  14.0274
    7   Sn  MulP   6.9997  6.9997 sum  13.9995
    8   Sn  MulP   6.9997  6.9997 sum  13.9995
    9   Sn  MulP   6.9978  6.9978 sum  13.9956
   10   Sn  MulP   6.9978  6.9978 sum  13.9956
   11   Sn  MulP   6.9980  6.9980 sum  13.9961
   12   Sn  MulP   6.9980  6.9980 sum  13.9961
   13   Sn  MulP   7.0025  7.0025 sum  14.0051
   14   Sn  MulP   7.0025  7.0025 sum  14.0051
   15   Sn  MulP   7.0003  7.0003 sum  14.0006
   16   Sn  MulP   7.0003  7.0003 sum  14.0006
   17   Sn  MulP   7.0001  7.0001 sum  14.0003
   18   Sn  MulP   7.0001  7.0001 sum  14.0003
   19   Sn  MulP   6.9985  6.9985 sum  13.9971
   20   Sn  MulP   6.9985  6.9985 sum  13.9971
     ..........
     ......

 Sum of MulP: up   =   336.00000 down          =   336.00000
              total=   672.00000 ideal(neutral)=   672.00000
<DFT>  Total Spin Moment (muB) =  0.000000000000
<DFT>  Mixing_weight= 0.030000000000
<DFT>  Uele   = -500.642083106116  dUele     =   0.143695838355
<DFT>  NormRD =    0.423396665637  Criterion =   0.000000100000

******************* MD= 1  SCF=25 *******************
<Poisson>  Poisson's equation using FFT...
<Set_Hamiltonian>  Hamiltonian matrix for VNA+dVH+Vxc...
<Band>  Solving the eigenvalue problem...
 KGrids1:  -0.42857  -0.28571  -0.14286   0.00000   0.14286   0.28572   0.42857 
 KGrids2:  -0.43750  -0.31250  -0.18750  -0.06250   0.06250   0.18750   0.31250   0.43750 
 KGrids3:   0.00000 
<Band_DFT>  Eigen, time=1.221284
<Band_DFT>  DM, time=0.000001
    1   Sn  MulP   6.9910  6.9910 sum  13.9821
    2   Sn  MulP   6.9910  6.9910 sum  13.9821
    3   Sn  MulP   6.9978  6.9978 sum  13.9956
    4   Sn  MulP   6.9978  6.9978 sum  13.9956
    5   Sn  MulP   7.0136  7.0136 sum  14.0271
    6   Sn  MulP   7.0136  7.0136 sum  14.0271
    7   Sn  MulP   6.9997  6.9997 sum  13.9993
    8   Sn  MulP   6.9997  6.9997 sum  13.9993
    9   Sn  MulP   6.9978  6.9978 sum  13.9956
   10   Sn  MulP   6.9978  6.9978 sum  13.9956
   11   Sn  MulP   6.9981  6.9981 sum  13.9962
   12   Sn  MulP   6.9981  6.9981 sum  13.9962
   13   Sn  MulP   7.0025  7.0025 sum  14.0050
   14   Sn  MulP   7.0025  7.0025 sum  14.0050
   15   Sn  MulP   7.0003  7.0003 sum  14.0006
   16   Sn  MulP   7.0003  7.0003 sum  14.0006
   17   Sn  MulP   7.0001  7.0001 sum  14.0002
   18   Sn  MulP   7.0001  7.0001 sum  14.0002
   19   Sn  MulP   6.9985  6.9985 sum  13.9971
   20   Sn  MulP   6.9985  6.9985 sum  13.9971
     ..........
     ......

 Sum of MulP: up   =   336.00000 down          =   336.00000
              total=   672.00000 ideal(neutral)=   672.00000
<DFT>  Total Spin Moment (muB) =  0.000000000000
<DFT>  Mixing_weight= 0.030000000000
<DFT>  Uele   = -500.778823629754  dUele     =   0.136740523638
<DFT>  NormRD =    0.408376943438  Criterion =   0.000000100000

******************* MD= 1  SCF=26 *******************
<Poisson>  Poisson's equation using FFT...
<Set_Hamiltonian>  Hamiltonian matrix for VNA+dVH+Vxc...
<Band>  Solving the eigenvalue problem...
 KGrids1:  -0.42857  -0.28571  -0.14286   0.00000   0.14286   0.28572   0.42857 
 KGrids2:  -0.43750  -0.31250  -0.18750  -0.06250   0.06250   0.18750   0.31250   0.43750 
 KGrids3:   0.00000 
<Band_DFT>  Eigen, time=1.176671
<Band_DFT>  DM, time=0.000000
    1   Sn  MulP   6.9914  6.9914 sum  13.9827
    2   Sn  MulP   6.9914  6.9914 sum  13.9827
    3   Sn  MulP   6.9976  6.9976 sum  13.9953
    4   Sn  MulP   6.9976  6.9976 sum  13.9953
    5   Sn  MulP   7.0134  7.0134 sum  14.0269
    6   Sn  MulP   7.0134  7.0134 sum  14.0269
    7   Sn  MulP   6.9996  6.9996 sum  13.9992
    8   Sn  MulP   6.9996  6.9996 sum  13.9992
    9   Sn  MulP   6.9979  6.9979 sum  13.9957
   10   Sn  MulP   6.9979  6.9979 sum  13.9957
   11   Sn  MulP   6.9981  6.9981 sum  13.9963
   12   Sn  MulP   6.9981  6.9981 sum  13.9963
   13   Sn  MulP   7.0024  7.0024 sum  14.0049
   14   Sn  MulP   7.0024  7.0024 sum  14.0049
   15   Sn  MulP   7.0003  7.0003 sum  14.0007
   16   Sn  MulP   7.0003  7.0003 sum  14.0006
   17   Sn  MulP   7.0001  7.0001 sum  14.0002
   18   Sn  MulP   7.0001  7.0001 sum  14.0002
   19   Sn  MulP   6.9986  6.9986 sum  13.9971
   20   Sn  MulP   6.9986  6.9986 sum  13.9971
     ..........
     ......

 Sum of MulP: up   =   336.00000 down          =   336.00000
              total=   672.00000 ideal(neutral)=   672.00000
<DFT>  Total Spin Moment (muB) =  0.000000000000
<DFT>  Mixing_weight= 0.030000000000
<DFT>  Uele   = -500.908910194512  dUele     =   0.130086564758
<DFT>  NormRD =    0.393961193303  Criterion =   0.000000100000

******************* MD= 1  SCF=27 *******************
<Poisson>  Poisson's equation using FFT...
<Set_Hamiltonian>  Hamiltonian matrix for VNA+dVH+Vxc...
<Band>  Solving the eigenvalue problem...
 KGrids1:  -0.42857  -0.28571  -0.14286   0.00000   0.14286   0.28572   0.42857 
 KGrids2:  -0.43750  -0.31250  -0.18750  -0.06250   0.06250   0.18750   0.31250   0.43750 
 KGrids3:   0.00000 
<Band_DFT>  Eigen, time=1.324049
<Band_DFT>  DM, time=0.000000
    1   Sn  MulP   6.9917  6.9917 sum  13.9833
    2   Sn  MulP   6.9917  6.9917 sum  13.9833
    3   Sn  MulP   6.9975  6.9975 sum  13.9950
    4   Sn  MulP   6.9975  6.9975 sum  13.9950
    5   Sn  MulP   7.0133  7.0133 sum  14.0267
    6   Sn  MulP   7.0133  7.0133 sum  14.0267
    7   Sn  MulP   6.9995  6.9995 sum  13.9991
    8   Sn  MulP   6.9995  6.9995 sum  13.9991
    9   Sn  MulP   6.9979  6.9979 sum  13.9958
   10   Sn  MulP   6.9979  6.9979 sum  13.9958
   11   Sn  MulP   6.9982  6.9982 sum  13.9964
   12   Sn  MulP   6.9982  6.9982 sum  13.9964
   13   Sn  MulP   7.0024  7.0024 sum  14.0048
   14   Sn  MulP   7.0024  7.0024 sum  14.0048
   15   Sn  MulP   7.0003  7.0003 sum  14.0007
   16   Sn  MulP   7.0003  7.0003 sum  14.0007
   17   Sn  MulP   7.0001  7.0001 sum  14.0002
   18   Sn  MulP   7.0001  7.0001 sum  14.0002
   19   Sn  MulP   6.9986  6.9986 sum  13.9972
   20   Sn  MulP   6.9986  6.9986 sum  13.9972
     ..........
     ......

 Sum of MulP: up   =   336.00000 down          =   336.00000
              total=   672.00000 ideal(neutral)=   672.00000
<DFT>  Total Spin Moment (muB) =  0.000000000000
<DFT>  Mixing_weight= 0.030000000000
<DFT>  Uele   = -501.032632726844  dUele     =   0.123722532332
<DFT>  NormRD =    0.380122496996  Criterion =   0.000000100000

******************* MD= 1  SCF=28 *******************
<Poisson>  Poisson's equation using FFT...
<Set_Hamiltonian>  Hamiltonian matrix for VNA+dVH+Vxc...
<Band>  Solving the eigenvalue problem...
 KGrids1:  -0.42857  -0.28571  -0.14286   0.00000   0.14286   0.28572   0.42857 
 KGrids2:  -0.43750  -0.31250  -0.18750  -0.06250   0.06250   0.18750   0.31250   0.43750 
 KGrids3:   0.00000 
<Band_DFT>  Eigen, time=1.324834
<Band_DFT>  DM, time=0.000001
    1   Sn  MulP   6.9919  6.9919 sum  13.9839
    2   Sn  MulP   6.9919  6.9919 sum  13.9839
    3   Sn  MulP   6.9973  6.9973 sum  13.9947
    4   Sn  MulP   6.9973  6.9973 sum  13.9947
    5   Sn  MulP   7.0132  7.0132 sum  14.0265
    6   Sn  MulP   7.0132  7.0132 sum  14.0265
    7   Sn  MulP   6.9995  6.9995 sum  13.9989
    8   Sn  MulP   6.9995  6.9995 sum  13.9989
    9   Sn  MulP   6.9979  6.9979 sum  13.9959
   10   Sn  MulP   6.9979  6.9979 sum  13.9959
   11   Sn  MulP   6.9982  6.9982 sum  13.9964
   12   Sn  MulP   6.9982  6.9982 sum  13.9964
   13   Sn  MulP   7.0024  7.0024 sum  14.0047
   14   Sn  MulP   7.0024  7.0024 sum  14.0047
   15   Sn  MulP   7.0003  7.0003 sum  14.0007
   16   Sn  MulP   7.0003  7.0003 sum  14.0007
   17   Sn  MulP   7.0001  7.0001 sum  14.0002
   18   Sn  MulP   7.0001  7.0001 sum  14.0002
   19   Sn  MulP   6.9986  6.9986 sum  13.9972
   20   Sn  MulP   6.9986  6.9986 sum  13.9972
     ..........
     ......

 Sum of MulP: up   =   336.00000 down          =   336.00000
              total=   672.00000 ideal(neutral)=   672.00000
<DFT>  Total Spin Moment (muB) =  0.000000000000
<DFT>  Mixing_weight= 0.030000000000
<DFT>  Uele   = -501.150269908794  dUele     =   0.117637181950
<DFT>  NormRD =    0.366835202056  Criterion =   0.000000100000

******************* MD= 1  SCF=29 *******************
<Poisson>  Poisson's equation using FFT...
<Set_Hamiltonian>  Hamiltonian matrix for VNA+dVH+Vxc...
<Band>  Solving the eigenvalue problem...
 KGrids1:  -0.42857  -0.28571  -0.14286   0.00000   0.14286   0.28572   0.42857 
 KGrids2:  -0.43750  -0.31250  -0.18750  -0.06250   0.06250   0.18750   0.31250   0.43750 
 KGrids3:   0.00000 
<Band_DFT>  Eigen, time=0.767004
<Band_DFT>  DM, time=0.000000
    1   Sn  MulP   6.9922  6.9922 sum  13.9844
    2   Sn  MulP   6.9922  6.9922 sum  13.9844
    3   Sn  MulP   6.9972  6.9972 sum  13.9944
    4   Sn  MulP   6.9972  6.9972 sum  13.9944
    5   Sn  MulP   7.0131  7.0131 sum  14.0263
    6   Sn  MulP   7.0131  7.0131 sum  14.0263
    7   Sn  MulP   6.9994  6.9994 sum  13.9988
    8   Sn  MulP   6.9994  6.9994 sum  13.9988
    9   Sn  MulP   6.9980  6.9980 sum  13.9959
   10   Sn  MulP   6.9980  6.9980 sum  13.9959
   11   Sn  MulP   6.9982  6.9982 sum  13.9965
   12   Sn  MulP   6.9982  6.9982 sum  13.9965
   13   Sn  MulP   7.0023  7.0023 sum  14.0046
   14   Sn  MulP   7.0023  7.0023 sum  14.0046
   15   Sn  MulP   7.0003  7.0003 sum  14.0007
   16   Sn  MulP   7.0003  7.0003 sum  14.0007
   17   Sn  MulP   7.0001  7.0001 sum  14.0002
   18   Sn  MulP   7.0001  7.0001 sum  14.0002
   19   Sn  MulP   6.9986  6.9986 sum  13.9972
   20   Sn  MulP   6.9986  6.9986 sum  13.9972
     ..........
     ......

 Sum of MulP: up   =   336.00000 down          =   336.00000
              total=   672.00000 ideal(neutral)=   672.00000
<DFT>  Total Spin Moment (muB) =  0.000000000000
<DFT>  Mixing_weight= 0.030000000000
<DFT>  Uele   = -501.262089414394  dUele     =   0.111819505600
<DFT>  NormRD =    0.354074861239  Criterion =   0.000000100000

******************* MD= 1  SCF=30 *******************
<Poisson>  Poisson's equation using FFT...
<Set_Hamiltonian>  Hamiltonian matrix for VNA+dVH+Vxc...
<Band>  Solving the eigenvalue problem...
 KGrids1:  -0.42857  -0.28571  -0.14286   0.00000   0.14286   0.28572   0.42857 
 KGrids2:  -0.43750  -0.31250  -0.18750  -0.06250   0.06250   0.18750   0.31250   0.43750 
 KGrids3:   0.00000 
<Band_DFT>  Eigen, time=0.746890
<Band_DFT>  DM, time=0.000000
    1   Sn  MulP   6.9925  6.9925 sum  13.9849
    2   Sn  MulP   6.9925  6.9925 sum  13.9849
    3   Sn  MulP   6.9971  6.9971 sum  13.9941
    4   Sn  MulP   6.9971  6.9971 sum  13.9941
    5   Sn  MulP   7.0130  7.0130 sum  14.0261
    6   Sn  MulP   7.0130  7.0130 sum  14.0261
    7   Sn  MulP   6.9994  6.9994 sum  13.9987
    8   Sn  MulP   6.9994  6.9994 sum  13.9987
    9   Sn  MulP   6.9980  6.9980 sum  13.9960
   10   Sn  MulP   6.9980  6.9980 sum  13.9960
   11   Sn  MulP   6.9983  6.9983 sum  13.9966
   12   Sn  MulP   6.9983  6.9983 sum  13.9966
   13   Sn  MulP   7.0023  7.0023 sum  14.0045
   14   Sn  MulP   7.0023  7.0023 sum  14.0045
   15   Sn  MulP   7.0003  7.0003 sum  14.0007
   16   Sn  MulP   7.0003  7.0003 sum  14.0007
   17   Sn  MulP   7.0001  7.0001 sum  14.0002
   18   Sn  MulP   7.0001  7.0001 sum  14.0002
   19   Sn  MulP   6.9986  6.9986 sum  13.9973
   20   Sn  MulP   6.9986  6.9986 sum  13.9973
     ..........
     ......

 Sum of MulP: up   =   336.00000 down          =   336.00000
              total=   672.00000 ideal(neutral)=   672.00000
<DFT>  Total Spin Moment (muB) =  0.000000000000
<DFT>  Mixing_weight= 0.030000000000
<DFT>  Uele   = -501.368348183420  dUele     =   0.106258769026
<DFT>  NormRD =    0.341818174851  Criterion =   0.000000100000

******************* MD= 1  SCF=31 *******************
<Poisson>  Poisson's equation using FFT...
<Set_Hamiltonian>  Hamiltonian matrix for VNA+dVH+Vxc...
<Band>  Solving the eigenvalue problem...
 KGrids1:  -0.42857  -0.28571  -0.14286   0.00000   0.14286   0.28572   0.42857 
 KGrids2:  -0.43750  -0.31250  -0.18750  -0.06250   0.06250   0.18750   0.31250   0.43750 
 KGrids3:   0.00000 
<Band_DFT>  Eigen, time=0.752818
<Band_DFT>  DM, time=0.000000
    1   Sn  MulP   6.9927  6.9927 sum  13.9854
    2   Sn  MulP   6.9927  6.9927 sum  13.9854
    3   Sn  MulP   6.9969  6.9969 sum  13.9939
    4   Sn  MulP   6.9969  6.9969 sum  13.9939
    5   Sn  MulP   7.0130  7.0130 sum  14.0259
    6   Sn  MulP   7.0130  7.0130 sum  14.0259
    7   Sn  MulP   6.9993  6.9993 sum  13.9986
    8   Sn  MulP   6.9993  6.9993 sum  13.9986
    9   Sn  MulP   6.9980  6.9980 sum  13.9960
   10   Sn  MulP   6.9980  6.9980 sum  13.9960
   11   Sn  MulP   6.9983  6.9983 sum  13.9966
   12   Sn  MulP   6.9983  6.9983 sum  13.9966
   13   Sn  MulP   7.0022  7.0022 sum  14.0045
   14   Sn  MulP   7.0022  7.0022 sum  14.0045
   15   Sn  MulP   7.0003  7.0003 sum  14.0007
   16   Sn  MulP   7.0003  7.0003 sum  14.0007
   17   Sn  MulP   7.0001  7.0001 sum  14.0002
   18   Sn  MulP   7.0001  7.0001 sum  14.0002
   19   Sn  MulP   6.9986  6.9986 sum  13.9973
   20   Sn  MulP   6.9986  6.9986 sum  13.9973
     ..........
     ......

 Sum of MulP: up   =   336.00000 down          =   336.00000
              total=   672.00000 ideal(neutral)=   672.00000
<DFT>  Total Spin Moment (muB) =  0.000000000000
<DFT>  Mixing_weight= 0.030000000000
<DFT>  Uele   = -501.469292719807  dUele     =   0.100944536387
<DFT>  NormRD =    0.330042935959  Criterion =   0.000000100000

******************* MD= 1  SCF=32 *******************
<Poisson>  Poisson's equation using FFT...
<Set_Hamiltonian>  Hamiltonian matrix for VNA+dVH+Vxc...
<Band>  Solving the eigenvalue problem...
 KGrids1:  -0.42857  -0.28571  -0.14286   0.00000   0.14286   0.28572   0.42857 
 KGrids2:  -0.43750  -0.31250  -0.18750  -0.06250   0.06250   0.18750   0.31250   0.43750 
 KGrids3:   0.00000 
<Band_DFT>  Eigen, time=0.747648
<Band_DFT>  DM, time=0.000000
    1   Sn  MulP   6.9929  6.9929 sum  13.9858
    2   Sn  MulP   6.9929  6.9929 sum  13.9858
    3   Sn  MulP   6.9968  6.9968 sum  13.9936
    4   Sn  MulP   6.9968  6.9968 sum  13.9936
    5   Sn  MulP   7.0129  7.0129 sum  14.0258
    6   Sn  MulP   7.0129  7.0129 sum  14.0258
    7   Sn  MulP   6.9993  6.9993 sum  13.9985
    8   Sn  MulP   6.9993  6.9993 sum  13.9985
    9   Sn  MulP   6.9980  6.9980 sum  13.9961
   10   Sn  MulP   6.9980  6.9980 sum  13.9961
   11   Sn  MulP   6.9983  6.9983 sum  13.9967
   12   Sn  MulP   6.9983  6.9983 sum  13.9967
   13   Sn  MulP   7.0022  7.0022 sum  14.0044
   14   Sn  MulP   7.0022  7.0022 sum  14.0044
   15   Sn  MulP   7.0003  7.0003 sum  14.0007
   16   Sn  MulP   7.0003  7.0003 sum  14.0007
   17   Sn  MulP   7.0001  7.0001 sum  14.0002
   18   Sn  MulP   7.0001  7.0001 sum  14.0002
   19   Sn  MulP   6.9987  6.9987 sum  13.9973
   20   Sn  MulP   6.9987  6.9987 sum  13.9973
     ..........
     ......

 Sum of MulP: up   =   336.00000 down          =   336.00000
              total=   672.00000 ideal(neutral)=   672.00000
<DFT>  Total Spin Moment (muB) =  0.000000000000
<DFT>  Mixing_weight= 0.030000000000
<DFT>  Uele   = -501.565159406462  dUele     =   0.095866686655
<DFT>  NormRD =    0.318727978219  Criterion =   0.000000100000

******************* MD= 1  SCF=33 *******************
<Poisson>  Poisson's equation using FFT...
<Set_Hamiltonian>  Hamiltonian matrix for VNA+dVH+Vxc...
<Band>  Solving the eigenvalue problem...
 KGrids1:  -0.42857  -0.28571  -0.14286   0.00000   0.14286   0.28572   0.42857 
 KGrids2:  -0.43750  -0.31250  -0.18750  -0.06250   0.06250   0.18750   0.31250   0.43750 
 KGrids3:   0.00000 
<Band_DFT>  Eigen, time=0.846070
<Band_DFT>  DM, time=0.000000
    1   Sn  MulP   6.9931  6.9931 sum  13.9863
    2   Sn  MulP   6.9931  6.9931 sum  13.9863
    3   Sn  MulP   6.9967  6.9967 sum  13.9934
    4   Sn  MulP   6.9967  6.9967 sum  13.9934
    5   Sn  MulP   7.0128  7.0128 sum  14.0256
    6   Sn  MulP   7.0128  7.0128 sum  14.0256
    7   Sn  MulP   6.9992  6.9992 sum  13.9984
    8   Sn  MulP   6.9992  6.9992 sum  13.9984
    9   Sn  MulP   6.9981  6.9981 sum  13.9961
   10   Sn  MulP   6.9981  6.9981 sum  13.9961
   11   Sn  MulP   6.9984  6.9984 sum  13.9967
   12   Sn  MulP   6.9984  6.9984 sum  13.9967
   13   Sn  MulP   7.0022  7.0022 sum  14.0043
   14   Sn  MulP   7.0022  7.0022 sum  14.0043
   15   Sn  MulP   7.0003  7.0003 sum  14.0007
   16   Sn  MulP   7.0003  7.0003 sum  14.0007
   17   Sn  MulP   7.0001  7.0001 sum  14.0002
   18   Sn  MulP   7.0001  7.0001 sum  14.0002
   19   Sn  MulP   6.9987  6.9987 sum  13.9973
   20   Sn  MulP   6.9987  6.9987 sum  13.9973
     ..........
     ......

 Sum of MulP: up   =   336.00000 down          =   336.00000
              total=   672.00000 ideal(neutral)=   672.00000
<DFT>  Total Spin Moment (muB) =  0.000000000000
<DFT>  Mixing_weight= 0.030000000000
<DFT>  Uele   = -501.656174831580  dUele     =   0.091015425117
<DFT>  NormRD =    0.307853126591  Criterion =   0.000000100000

******************* MD= 1  SCF=34 *******************
<Poisson>  Poisson's equation using FFT...
<Set_Hamiltonian>  Hamiltonian matrix for VNA+dVH+Vxc...
<Band>  Solving the eigenvalue problem...
 KGrids1:  -0.42857  -0.28571  -0.14286   0.00000   0.14286   0.28572   0.42857 
 KGrids2:  -0.43750  -0.31250  -0.18750  -0.06250   0.06250   0.18750   0.31250   0.43750 
 KGrids3:   0.00000 
<Band_DFT>  Eigen, time=1.008894
<Band_DFT>  DM, time=0.000000
    1   Sn  MulP   6.9933  6.9933 sum  13.9867
    2   Sn  MulP   6.9933  6.9933 sum  13.9867
    3   Sn  MulP   6.9966  6.9966 sum  13.9932
    4   Sn  MulP   6.9966  6.9966 sum  13.9932
    5   Sn  MulP   7.0127  7.0127 sum  14.0255
    6   Sn  MulP   7.0127  7.0127 sum  14.0255
    7   Sn  MulP   6.9992  6.9992 sum  13.9983
    8   Sn  MulP   6.9992  6.9992 sum  13.9983
    9   Sn  MulP   6.9981  6.9981 sum  13.9961
   10   Sn  MulP   6.9981  6.9981 sum  13.9961
   11   Sn  MulP   6.9984  6.9984 sum  13.9968
   12   Sn  MulP   6.9984  6.9984 sum  13.9968
   13   Sn  MulP   7.0021  7.0021 sum  14.0043
   14   Sn  MulP   7.0021  7.0021 sum  14.0043
   15   Sn  MulP   7.0003  7.0003 sum  14.0007
   16   Sn  MulP   7.0003  7.0003 sum  14.0007
   17   Sn  MulP   7.0001  7.0001 sum  14.0002
   18   Sn  MulP   7.0001  7.0001 sum  14.0002
   19   Sn  MulP   6.9987  6.9987 sum  13.9974
   20   Sn  MulP   6.9987  6.9987 sum  13.9974
     ..........
     ......

 Sum of MulP: up   =   336.00000 down          =   336.00000
              total=   672.00000 ideal(neutral)=   672.00000
<DFT>  Total Spin Moment (muB) =  0.000000000000
<DFT>  Mixing_weight= 0.030000000000
<DFT>  Uele   = -501.742556119190  dUele     =   0.086381287610
<DFT>  NormRD =    0.297399150029  Criterion =   0.000000100000

******************* MD= 1  SCF=35 *******************
<Poisson>  Poisson's equation using FFT...
<Set_Hamiltonian>  Hamiltonian matrix for VNA+dVH+Vxc...
<Band>  Solving the eigenvalue problem...
 KGrids1:  -0.42857  -0.28571  -0.14286   0.00000   0.14286   0.28572   0.42857 
 KGrids2:  -0.43750  -0.31250  -0.18750  -0.06250   0.06250   0.18750   0.31250   0.43750 
 KGrids3:   0.00000 
<Band_DFT>  Eigen, time=1.038360
<Band_DFT>  DM, time=0.000000
    1   Sn  MulP   6.9935  6.9935 sum  13.9871
    2   Sn  MulP   6.9935  6.9935 sum  13.9871
    3   Sn  MulP   6.9965  6.9965 sum  13.9930
    4   Sn  MulP   6.9965  6.9965 sum  13.9930
    5   Sn  MulP   7.0127  7.0127 sum  14.0253
    6   Sn  MulP   7.0127  7.0127 sum  14.0253
    7   Sn  MulP   6.9991  6.9991 sum  13.9983
    8   Sn  MulP   6.9991  6.9991 sum  13.9983
    9   Sn  MulP   6.9981  6.9981 sum  13.9962
   10   Sn  MulP   6.9981  6.9981 sum  13.9962
   11   Sn  MulP   6.9984  6.9984 sum  13.9968
   12   Sn  MulP   6.9984  6.9984 sum  13.9968
   13   Sn  MulP   7.0021  7.0021 sum  14.0042
   14   Sn  MulP   7.0021  7.0021 sum  14.0042
   15   Sn  MulP   7.0003  7.0003 sum  14.0007
   16   Sn  MulP   7.0003  7.0003 sum  14.0007
   17   Sn  MulP   7.0001  7.0001 sum  14.0002
   18   Sn  MulP   7.0001  7.0001 sum  14.0002
   19   Sn  MulP   6.9987  6.9987 sum  13.9974
   20   Sn  MulP   6.9987  6.9987 sum  13.9974
     ..........
     ......

 Sum of MulP: up   =   336.00000 down          =   336.00000
              total=   672.00000 ideal(neutral)=   672.00000
<DFT>  Total Spin Moment (muB) =  0.000000000000
<DFT>  Mixing_weight= 0.030000000000
<DFT>  Uele   = -501.824511261808  dUele     =   0.081955142618
<DFT>  NormRD =    0.287347716609  Criterion =   0.000000100000

******************* MD= 1  SCF=36 *******************
<Poisson>  Poisson's equation using FFT...
<Set_Hamiltonian>  Hamiltonian matrix for VNA+dVH+Vxc...
<Band>  Solving the eigenvalue problem...
 KGrids1:  -0.42857  -0.28571  -0.14286   0.00000   0.14286   0.28572   0.42857 
 KGrids2:  -0.43750  -0.31250  -0.18750  -0.06250   0.06250   0.18750   0.31250   0.43750 
 KGrids3:   0.00000 
<Band_DFT>  Eigen, time=0.744924
<Band_DFT>  DM, time=0.000000
    1   Sn  MulP   6.9937  6.9937 sum  13.9874
    2   Sn  MulP   6.9937  6.9937 sum  13.9874
    3   Sn  MulP   6.9964  6.9964 sum  13.9928
    4   Sn  MulP   6.9964  6.9964 sum  13.9928
    5   Sn  MulP   7.0126  7.0126 sum  14.0252
    6   Sn  MulP   7.0126  7.0126 sum  14.0252
    7   Sn  MulP   6.9991  6.9991 sum  13.9982
    8   Sn  MulP   6.9991  6.9991 sum  13.9982
    9   Sn  MulP   6.9981  6.9981 sum  13.9962
   10   Sn  MulP   6.9981  6.9981 sum  13.9962
   11   Sn  MulP   6.9984  6.9984 sum  13.9968
   12   Sn  MulP   6.9984  6.9984 sum  13.9968
   13   Sn  MulP   7.0021  7.0021 sum  14.0041
   14   Sn  MulP   7.0021  7.0021 sum  14.0041
   15   Sn  MulP   7.0003  7.0003 sum  14.0007
[...]
    8   Sn  MulP   6.9992  6.9992 sum  13.9983
    9   Sn  MulP   6.9984  6.9984 sum  13.9968
   10   Sn  MulP   6.9984  6.9984 sum  13.9968
   11   Sn  MulP   6.9979  6.9979 sum  13.9957
   12   Sn  MulP   6.9979  6.9979 sum  13.9957
   13   Sn  MulP   7.0028  7.0028 sum  14.0056
   14   Sn  MulP   7.0028  7.0028 sum  14.0056
   15   Sn  MulP   6.9995  6.9995 sum  13.9991
   16   Sn  MulP   6.9995  6.9995 sum  13.9991
   17   Sn  MulP   6.9988  6.9988 sum  13.9976
   18   Sn  MulP   6.9988  6.9988 sum  13.9976
   19   Sn  MulP   7.0000  7.0000 sum  14.0000
   20   Sn  MulP   7.0000  7.0000 sum  14.0000
     ..........
     ......

 Sum of MulP: up   =   336.00000 down          =   336.00000
              total=   672.00000 ideal(neutral)=   672.00000
<DFT>  Total Spin Moment (muB) =  0.000000000000
<DFT>  Mixing_weight= 0.003000000000
<DFT>  Uele   = -502.701611965920  dUele     =   0.000001000498
<DFT>  NormRD =    0.000000390243  Criterion =   0.000000100000

******************* MD=24  SCF=28 *******************
<Poisson>  Poisson's equation using FFT...
<Set_Hamiltonian>  Hamiltonian matrix for VNA+dVH+Vxc...
<Band>  Solving the eigenvalue problem...
 KGrids1:  -0.42857  -0.28571  -0.14286   0.00000   0.14286   0.28572   0.42857 
 KGrids2:  -0.43750  -0.31250  -0.18750  -0.06250   0.06250   0.18750   0.31250   0.43750 
 KGrids3:   0.00000 
<Band_DFT>  Eigen, time=1.149943
<Band_DFT>  DM, time=0.000000
    1   Sn  MulP   7.0037  7.0037 sum  14.0073
    2   Sn  MulP   7.0037  7.0037 sum  14.0073
    3   Sn  MulP   6.9898  6.9898 sum  13.9795
    4   Sn  MulP   6.9898  6.9898 sum  13.9795
    5   Sn  MulP   7.0097  7.0097 sum  14.0193
    6   Sn  MulP   7.0097  7.0097 sum  14.0193
    7   Sn  MulP   6.9992  6.9992 sum  13.9983
    8   Sn  MulP   6.9992  6.9992 sum  13.9983
    9   Sn  MulP   6.9984  6.9984 sum  13.9968
   10   Sn  MulP   6.9984  6.9984 sum  13.9968
   11   Sn  MulP   6.9979  6.9979 sum  13.9957
   12   Sn  MulP   6.9979  6.9979 sum  13.9957
   13   Sn  MulP   7.0028  7.0028 sum  14.0056
   14   Sn  MulP   7.0028  7.0028 sum  14.0056
   15   Sn  MulP   6.9995  6.9995 sum  13.9991
   16   Sn  MulP   6.9995  6.9995 sum  13.9991
   17   Sn  MulP   6.9988  6.9988 sum  13.9976
   18   Sn  MulP   6.9988  6.9988 sum  13.9976
   19   Sn  MulP   7.0000  7.0000 sum  14.0000
   20   Sn  MulP   7.0000  7.0000 sum  14.0000
     ..........
     ......

 Sum of MulP: up   =   336.00000 down          =   336.00000
              total=   672.00000 ideal(neutral)=   672.00000
<DFT>  Total Spin Moment (muB) =  0.000000000000
<DFT>  Mixing_weight= 0.003000000000
<DFT>  Uele   = -502.701610729198  dUele     =   0.000001236721
<DFT>  NormRD =    0.000000042849  Criterion =   0.000000100000

******************* MD=24  SCF=29 *******************
<Poisson>  Poisson's equation using FFT...
<Set_Hamiltonian>  Hamiltonian matrix for VNA+dVH+Vxc...
<Band>  Solving the eigenvalue problem...
 KGrids1:  -0.42857  -0.28571  -0.14286   0.00000   0.14286   0.28572   0.42857 
 KGrids2:  -0.43750  -0.31250  -0.18750  -0.06250   0.06250   0.18750   0.31250   0.43750 
 KGrids3:   0.00000 
<Band_DFT>  Eigen, time=0.751553
<Band_DFT>  DM, time=0.000000
    1   Sn  MulP   7.0037  7.0037 sum  14.0073
    2   Sn  MulP   7.0037  7.0037 sum  14.0073
    3   Sn  MulP   6.9898  6.9898 sum  13.9795
    4   Sn  MulP   6.9898  6.9898 sum  13.9795
    5   Sn  MulP   7.0097  7.0097 sum  14.0193
    6   Sn  MulP   7.0097  7.0097 sum  14.0193
    7   Sn  MulP   6.9992  6.9992 sum  13.9983
    8   Sn  MulP   6.9992  6.9992 sum  13.9983
    9   Sn  MulP   6.9984  6.9984 sum  13.9968
   10   Sn  MulP   6.9984  6.9984 sum  13.9968
   11   Sn  MulP   6.9979  6.9979 sum  13.9957
   12   Sn  MulP   6.9979  6.9979 sum  13.9957
   13   Sn  MulP   7.0028  7.0028 sum  14.0056
   14   Sn  MulP   7.0028  7.0028 sum  14.0056
   15   Sn  MulP   6.9995  6.9995 sum  13.9991
   16   Sn  MulP   6.9995  6.9995 sum  13.9991
   17   Sn  MulP   6.9988  6.9988 sum  13.9976
   18   Sn  MulP   6.9988  6.9988 sum  13.9976
   19   Sn  MulP   7.0000  7.0000 sum  14.0000
   20   Sn  MulP   7.0000  7.0000 sum  14.0000
     ..........
     ......

 Sum of MulP: up   =   336.00000 down          =   336.00000
              total=   672.00000 ideal(neutral)=   672.00000
<DFT>  Total Spin Moment (muB) =  0.000000000000
<DFT>  Mixing_weight= 0.003000000000
<DFT>  Uele   = -502.701611175727  dUele     =   0.000000446529
<DFT>  NormRD =    0.000000120936  Criterion =   0.000000100000

******************* MD=24  SCF=30 *******************
<Poisson>  Poisson's equation using FFT...
<Set_Hamiltonian>  Hamiltonian matrix for VNA+dVH+Vxc...
<Band>  Solving the eigenvalue problem...
 KGrids1:  -0.42857  -0.28571  -0.14286   0.00000   0.14286   0.28572   0.42857 
 KGrids2:  -0.43750  -0.31250  -0.18750  -0.06250   0.06250   0.18750   0.31250   0.43750 
 KGrids3:   0.00000 
<Band_DFT>  Eigen, time=0.892623
<Band_DFT>  DM, time=0.000000
    1   Sn  MulP   7.0037  7.0037 sum  14.0073
    2   Sn  MulP   7.0037  7.0037 sum  14.0073
    3   Sn  MulP   6.9898  6.9898 sum  13.9795
    4   Sn  MulP   6.9898  6.9898 sum  13.9795
    5   Sn  MulP   7.0097  7.0097 sum  14.0193
    6   Sn  MulP   7.0097  7.0097 sum  14.0193
    7   Sn  MulP   6.9992  6.9992 sum  13.9983
    8   Sn  MulP   6.9992  6.9992 sum  13.9983
    9   Sn  MulP   6.9984  6.9984 sum  13.9968
   10   Sn  MulP   6.9984  6.9984 sum  13.9968
   11   Sn  MulP   6.9979  6.9979 sum  13.9957
   12   Sn  MulP   6.9979  6.9979 sum  13.9957
   13   Sn  MulP   7.0028  7.0028 sum  14.0056
   14   Sn  MulP   7.0028  7.0028 sum  14.0056
   15   Sn  MulP   6.9995  6.9995 sum  13.9991
   16   Sn  MulP   6.9995  6.9995 sum  13.9991
   17   Sn  MulP   6.9988  6.9988 sum  13.9976
   18   Sn  MulP   6.9988  6.9988 sum  13.9976
   19   Sn  MulP   7.0000  7.0000 sum  14.0000
   20   Sn  MulP   7.0000  7.0000 sum  14.0000
     ..........
     ......

 Sum of MulP: up   =   336.00000 down          =   336.00000
              total=   672.00000 ideal(neutral)=   672.00000
<DFT>  Total Spin Moment (muB) =  0.000000000000
<DFT>  Mixing_weight= 0.003000000000
<DFT>  Uele   = -502.701610786809  dUele     =   0.000000388918
<DFT>  NormRD =    0.000000024527  Criterion =   0.000000100000

******************* MD=24  SCF=31 *******************
<Poisson>  Poisson's equation using FFT...
<Set_Hamiltonian>  Hamiltonian matrix for VNA+dVH+Vxc...
<Band>  Solving the eigenvalue problem...
 KGrids1:  -0.42857  -0.28571  -0.14286   0.00000   0.14286   0.28572   0.42857 
 KGrids2:  -0.43750  -0.31250  -0.18750  -0.06250   0.06250   0.18750   0.31250   0.43750 
 KGrids3:   0.00000 
<Band_DFT>  Eigen, time=0.949527
<Band_DFT>  DM, time=0.000000
    1   Sn  MulP   7.0037  7.0037 sum  14.0073
    2   Sn  MulP   7.0037  7.0037 sum  14.0073
    3   Sn  MulP   6.9898  6.9898 sum  13.9795
    4   Sn  MulP   6.9898  6.9898 sum  13.9795
    5   Sn  MulP   7.0097  7.0097 sum  14.0193
    6   Sn  MulP   7.0097  7.0097 sum  14.0193
    7   Sn  MulP   6.9992  6.9992 sum  13.9983
    8   Sn  MulP   6.9992  6.9992 sum  13.9983
    9   Sn  MulP   6.9984  6.9984 sum  13.9968
   10   Sn  MulP   6.9984  6.9984 sum  13.9968
   11   Sn  MulP   6.9979  6.9979 sum  13.9957
   12   Sn  MulP   6.9979  6.9979 sum  13.9957
   13   Sn  MulP   7.0028  7.0028 sum  14.0056
   14   Sn  MulP   7.0028  7.0028 sum  14.0056
   15   Sn  MulP   6.9995  6.9995 sum  13.9991
   16   Sn  MulP   6.9995  6.9995 sum  13.9991
   17   Sn  MulP   6.9988  6.9988 sum  13.9976
   18   Sn  MulP   6.9988  6.9988 sum  13.9976
   19   Sn  MulP   7.0000  7.0000 sum  14.0000
   20   Sn  MulP   7.0000  7.0000 sum  14.0000
     ..........
     ......

 Sum of MulP: up   =   336.00000 down          =   336.00000
              total=   672.00000 ideal(neutral)=   672.00000
<DFT>  Total Spin Moment (muB) =  0.000000000000
<DFT>  Mixing_weight= 0.003000000000
<DFT>  Uele   = -502.701610678825  dUele     =   0.000000107984
<DFT>  NormRD =    0.000000018665  Criterion =   0.000000100000

******************* MD=24  SCF=32 *******************
<Poisson>  Poisson's equation using FFT...
<Set_Hamiltonian>  Hamiltonian matrix for VNA+dVH+Vxc...
<Band>  Solving the eigenvalue problem...
 KGrids1:  -0.42857  -0.28571  -0.14286   0.00000   0.14286   0.28572   0.42857 
 KGrids2:  -0.43750  -0.31250  -0.18750  -0.06250   0.06250   0.18750   0.31250   0.43750 
 KGrids3:   0.00000 
<Band_DFT>  Eigen, time=1.228668
<Band_DFT>  DM, time=0.000000
    1   Sn  MulP   7.0037  7.0037 sum  14.0073
    2   Sn  MulP   7.0037  7.0037 sum  14.0073
    3   Sn  MulP   6.9898  6.9898 sum  13.9795
    4   Sn  MulP   6.9898  6.9898 sum  13.9795
    5   Sn  MulP   7.0097  7.0097 sum  14.0193
    6   Sn  MulP   7.0097  7.0097 sum  14.0193
    7   Sn  MulP   6.9992  6.9992 sum  13.9983
    8   Sn  MulP   6.9992  6.9992 sum  13.9983
    9   Sn  MulP   6.9984  6.9984 sum  13.9968
   10   Sn  MulP   6.9984  6.9984 sum  13.9968
   11   Sn  MulP   6.9979  6.9979 sum  13.9957
   12   Sn  MulP   6.9979  6.9979 sum  13.9957
   13   Sn  MulP   7.0028  7.0028 sum  14.0056
   14   Sn  MulP   7.0028  7.0028 sum  14.0056
   15   Sn  MulP   6.9995  6.9995 sum  13.9991
   16   Sn  MulP   6.9995  6.9995 sum  13.9991
   17   Sn  MulP   6.9988  6.9988 sum  13.9976
   18   Sn  MulP   6.9988  6.9988 sum  13.9976
   19   Sn  MulP   7.0000  7.0000 sum  14.0000
   20   Sn  MulP   7.0000  7.0000 sum  14.0000
     ..........
     ......

 Sum of MulP: up   =   336.00000 down          =   336.00000
              total=   672.00000 ideal(neutral)=   672.00000
<DFT>  Total Spin Moment (muB) =  0.000000000000
<DFT>  Mixing_weight= 0.003000000000
<DFT>  Uele   = -502.701610692521  dUele     =   0.000000013696
<DFT>  NormRD =    0.000000016169  Criterion =   0.000000100000
<MD=24>  Force calculation
  Force calculation #1
  Force calculation #2
  Force calculation #3
  Force calculation #4
  Force calculation #5
<MD=24>  Total Energy
  Force calculation #6
  Force calculation #7

*******************************************************
                  Dipole moment (Debye)                 
*******************************************************

 Absolute D       57.59838548

                      Dx                Dy                Dz
 Total            -57.59838530       -0.00077299        0.00441332
 Core           11051.97172029     4817.42427669    99850.79122832
 Electron      -11109.57010560    -4817.42504968   -99850.78681500
 Back ground       -0.00000000       -0.00000000       -0.00000000

*******************************************************
                Total Energy (Hartree) at MD =24        
*******************************************************

  Uele  =    -502.701610692521

  Ukin  =    2440.983658633827
  UH0   =  -30296.557164127895
  UH1   =       0.061892872310
  Una   =   -1792.791344798448
  Unl   =    -574.876753999792
  Uxc0  =    -302.769712215229
  Uxc1  =    -302.769712215229
  Ucore =   27418.920138895493
  Uhub  =       0.000000000000
  Ucs   =       0.000000000000
  Uzs   =       0.000000000000
  Uzo   =       0.000000000000
  Uef   =       0.000000000000
  UvdW  =       0.000000000000
  Uch   =       0.000000000000
  Utot  =   -3409.798996954964

  UpV   =       0.000000000000
  Enpy  =   -3409.798996954964
  Note:

  Uele:   band energy
  Ukin:   kinetic energy
  UH0:    electric part of screened Coulomb energy
  UH1:    difference electron-electron Coulomb energy
  Una:    neutral atom potential energy
  Unl:    non-local potential energy
  Uxc0:   exchange-correlation energy for alpha spin
  Uxc1:   exchange-correlation energy for beta spin
  Ucore:  core-core Coulomb energy
  Uhub:   LDA+U energy
  Ucs:    constraint energy for spin orientation
  Uzs:    Zeeman term for spin magnetic moment
  Uzo:    Zeeman term for orbital magnetic moment
  Uef:    electric energy by electric field
  UvdW:   semi-empirical vdW energy 
  Uch:    penalty term to create a core hole
  UpV:    pressure times volume
  Enpy:   Enthalpy = Utot + UpV
  (see also PRB 72, 045121(2005) for the energy contributions)


*******************************************************
           Computational times (s) at MD =24            
*******************************************************

  DFT in total      =   58.58455

  Set_OLP_Kin       =    0.83407
  Set_Nonlocal      =    1.35865
  Set_ProExpn_VNA   =    4.04784
  Set_Hamiltonian   =    9.88790
  Poisson           =    0.02749
  diagonalization   =   33.30698
  Mixing_DM         =    0.24833
  Force             =    2.92684
  Total_Energy      =    0.43257
  Set_Aden_Grid     =    0.01318
  Set_Orbitals_Grid =    0.14582
  Set_Density_Grid  =    4.82064
  RestartFileDFT    =    0.29593
  Mulliken_Charge   =    0.01240
  FFT(2D)_Density   =    0.03963

The SCF was achieved at MD=  24

*******************************************************
             MD or geometry opt. at MD =24              
*******************************************************


The geometry optimization was achieved.
<BFGS>  |Maximum force| (Hartree/Bohr) = 0.000223417249
<BFGS>  Criterion       (Hartree/Bohr) = 0.000300000000

     atom=   1, XYZ(ang) Fxyz(a.u.)=  -0.0094   -0.0000   15.0746    -0.0000   -0.0000    0.0001
     atom=   2, XYZ(ang) Fxyz(a.u.)=   3.3817    2.9850   15.0746    -0.0000   -0.0000    0.0001
     atom=   3, XYZ(ang) Fxyz(a.u.)=   6.3704    2.9850   15.7326    -0.0000   -0.0000    0.0001
     atom=   4, XYZ(ang) Fxyz(a.u.)=   2.9794   -0.0000   15.7326    -0.0000    0.0000    0.0001
     atom=   5, XYZ(ang) Fxyz(a.u.)=   5.2923    0.0000   17.7706    -0.0002    0.0000    0.0001
     atom=   6, XYZ(ang) Fxyz(a.u.)=   1.9013    2.9850   17.7706    -0.0002    0.0000    0.0001
     atom=   7, XYZ(ang) Fxyz(a.u.)=   4.9264    2.9850   18.5239    -0.0001    0.0000   -0.0001
     atom=   8, XYZ(ang) Fxyz(a.u.)=   1.5354    0.0000   18.5239    -0.0001    0.0000   -0.0001
     atom=   9, XYZ(ang) Fxyz(a.u.)=   3.7244   -0.0000   20.6900     0.0001   -0.0000   -0.0000
     atom=  10, XYZ(ang) Fxyz(a.u.)=   0.3333    2.9850   20.6900     0.0001    0.0000   -0.0000
     atom=  11, XYZ(ang) Fxyz(a.u.)=   3.3493    2.9850   21.3714     0.0001   -0.0000   -0.0001
     atom=  12, XYZ(ang) Fxyz(a.u.)=   6.7404   -0.0000   21.3714     0.0001   -0.0000   -0.0001
     atom=  13, XYZ(ang) Fxyz(a.u.)=   2.2021    0.0000   23.5044     0.0000   -0.0000    0.0001
     atom=  14, XYZ(ang) Fxyz(a.u.)=   5.5931    2.9850   23.5044     0.0000   -0.0000    0.0001
     atom=  15, XYZ(ang) Fxyz(a.u.)=   1.8089    2.9850   24.2217     0.0000   -0.0000    0.0000
     atom=  16, XYZ(ang) Fxyz(a.u.)=   5.1999   -0.0000   24.2217     0.0000   -0.0000    0.0000
     atom=  17, XYZ(ang) Fxyz(a.u.)=   0.6883   -0.0000   26.3298     0.0001    0.0000   -0.0000
     atom=  18, XYZ(ang) Fxyz(a.u.)=   4.0793    2.9850   26.3298     0.0001    0.0000   -0.0000
     atom=  19, XYZ(ang) Fxyz(a.u.)=   0.3107    2.9850   27.0407     0.0000    0.0000   -0.0000
     atom=  20, XYZ(ang) Fxyz(a.u.)=   3.7018    0.0000   27.0407     0.0000    0.0000   -0.0000
     atom=  21, XYZ(ang) Fxyz(a.u.)=   5.9226    0.0000   29.1668     0.0000    0.0000   -0.0001
     atom=  22, XYZ(ang) Fxyz(a.u.)=   2.5316    2.9850   29.1668     0.0000    0.0000   -0.0001
     atom=  23, XYZ(ang) Fxyz(a.u.)=   5.5437    2.9850   29.8753    -0.0001   -0.0000    0.0001
     atom=  24, XYZ(ang) Fxyz(a.u.)=   2.1526   -0.0000   29.8753    -0.0001   -0.0000    0.0001
     atom=  25, XYZ(ang) Fxyz(a.u.)=   4.4212    0.0000   31.9944    -0.0001   -0.0000    0.0001
     atom=  26, XYZ(ang) Fxyz(a.u.)=   1.0301    2.9850   31.9944    -0.0001   -0.0000    0.0001
     atom=  27, XYZ(ang) Fxyz(a.u.)=   4.0210    2.9850   32.7014     0.0000   -0.0000   -0.0001
     atom=  28, XYZ(ang) Fxyz(a.u.)=   0.6299   -0.0000   32.7014     0.0000   -0.0000   -0.0001
     atom=  29, XYZ(ang) Fxyz(a.u.)=   2.8764   -0.0000   34.8311    -0.0000    0.0000    0.0001
     atom=  30, XYZ(ang) Fxyz(a.u.)=   6.2674    2.9850   34.8311    -0.0000    0.0000    0.0001
     atom=  31, XYZ(ang) Fxyz(a.u.)=   2.4980    2.9850   35.5365     0.0002   -0.0000   -0.0002
     atom=  32, XYZ(ang) Fxyz(a.u.)=   5.8890   -0.0000   35.5365     0.0002    0.0000   -0.0002
     atom=  33, XYZ(ang) Fxyz(a.u.)=   1.3237   -0.0000   37.6467    -0.0001   -0.0000   -0.0000
     atom=  34, XYZ(ang) Fxyz(a.u.)=   4.7148    2.9850   37.6467    -0.0001   -0.0000   -0.0000
     atom=  35, XYZ(ang) Fxyz(a.u.)=   0.9457    2.9850   38.3652    -0.0000    0.0000   -0.0001
     atom=  36, XYZ(ang) Fxyz(a.u.)=   4.3367    0.0000   38.3652    -0.0000   -0.0000   -0.0001
     atom=  37, XYZ(ang) Fxyz(a.u.)=   6.6307    0.0000   40.4903     0.0001    0.0000    0.0000
     atom=  38, XYZ(ang) Fxyz(a.u.)=   3.2397    2.9850   40.4903     0.0001   -0.0000    0.0000
     atom=  39, XYZ(ang) Fxyz(a.u.)=   6.2496    2.9850   41.1848     0.0001    0.0000   -0.0002
     atom=  40, XYZ(ang) Fxyz(a.u.)=   2.8585    0.0000   41.1848     0.0001    0.0000   -0.0002
     atom=  41, XYZ(ang) Fxyz(a.u.)=   5.0562    0.0000   43.3434     0.0000    0.0000   -0.0001
     atom=  42, XYZ(ang) Fxyz(a.u.)=   1.6652    2.9850   43.3434     0.0000    0.0000   -0.0001
     atom=  43, XYZ(ang) Fxyz(a.u.)=   4.6844    2.9850   44.1139     0.0002    0.0000   -0.0001
     atom=  44, XYZ(ang) Fxyz(a.u.)=   1.2934    0.0000   44.1139     0.0002    0.0000   -0.0001
     atom=  45, XYZ(ang) Fxyz(a.u.)=   3.5929   -0.0000   46.1308    -0.0001    0.0000   -0.0002
     atom=  46, XYZ(ang) Fxyz(a.u.)=   0.2018    2.9850   46.1308    -0.0001    0.0000   -0.0002
     atom=  47, XYZ(ang) Fxyz(a.u.)=   3.1385    2.9850   46.8010     0.0001    0.0000   -0.0002
     atom=  48, XYZ(ang) Fxyz(a.u.)=   6.5295    0.0000   46.8010     0.0001   -0.0000   -0.0002

outputting data on grids to files...


***********************************************************
***********************************************************
               Computational Time (second)                 
***********************************************************
***********************************************************

                               Min_ID   Min_Time       Max_ID   Max_Time
   Total Computational Time =   114     1368.574          0     1368.630
   readfile                 =   107        5.133         49        5.145
   truncation               =    49        5.868         21        7.286
   MD_pac                   =     0        0.524         25        0.596
   OutData                  =    29        0.000          0        0.049
   DFT                      =    21     1354.997         49     1356.412

*** In DFT ***

   Set_OLP_Kin              =    77        0.691         42       27.280
   Set_Nonlocal             =    42       29.007         77       55.595
   Set_ProExpn_VNA          =    60       29.413         25       91.664
   Set_Hamiltonian          =    86      247.483         85      247.487
   Poisson                  =     0        0.706         85        0.712
   Diagonalization          =     0      764.578         97      764.691
   Mixing_DM                =     8        6.380         36        6.381
   Force                    =    64       67.732         21       67.732
   Total_Energy             =    99       10.106          0       10.201
   Set_Aden_Grid            =    25        2.097         50       64.299
   Set_Orbitals_Grid        =   108        0.000         21        3.950
   Set_Density_Grid         =    31       90.278        125       91.312
   RestartFileDFT           =    45        6.626         52       10.691
   Mulliken_Charge          =    94        0.352         42        0.353
   FFT(2D)_Density          =    85        1.583         86        1.584
   Others                   =    21        3.742         56       10.266

The calculation was normally finished.

################################
##        Job Finished        ##
################################
