Loading intel/2025.3
  Loading requirement: advisor/2025.4 ccl/2022.0.0 tbb/2022.3
    compiler-rt/2025.3.2 umf/1.0.2 compiler/2025.3.2 debugger/2025.3.1
    dev-utilities/2025.3.0 dnnl/3.9.1 dpct/2025.3.0 dpl/2022.10
    intel_ipp_intel64/2022.3 intel_ippcp_intel64/2025.3 ishmem/1.5.0 mkl/2025.3
    mpi/2021.17 vtune/2025.8

################################
##      Job Information       ##
################################
Job ID: 242846.pbs
Job Name: jobA.sh
Queue: A_S
Work Directory: <WORK_DIR>/slab_100_L12_Relax


The number of threads in each node for OpenMP parallelization is 2.


*******************************************************
*******************************************************
 Welcome to OpenMX   Ver. 3.9.9                           
 Copyright (C), 2002-2019, T. Ozaki                    
 OpenMX comes with ABSOLUTELY NO WARRANTY.             
 This is free software, and you are welcome to         
 redistribute it under the constitution of the GNU-GPL.
*******************************************************
*******************************************************



<Input_std>  Your input file was normally read.
<Input_std>  The system includes 1 species and 48 atoms.

*******************************************************
                     PAO and VPS                       
*******************************************************

<SetPara_DFT>  PAOs of species Sn were normally found.
<SetPara_DFT>  VPSs of species Sn were normally found.
               Sn_PBE19.vps is j-dependent.
               In case of scf.SpinOrbit.Coupling=off,
               j-dependent pseudo potentials are averaged by j-degeneracy,
               which corresponds to a scalar relativistic treatment.

*******************************************************
     Fourier transform of PAO and projectors of VNL    
*******************************************************

<FT_PAO>          Fourier transform of pseudo atomic orbitals
<FT_NLP>          Fourier transform of non-local projectors
<FT_ProExpn_VNA>  Fourier transform of VNA separable projectors
<FT_VNA>          Fourier transform of VNA potentials
<FT_ProductPAO>   Fourier transform of product of PAOs

*******************************************************
  Allocation of atoms to processors at MD_iter=    1     
*******************************************************

 proc =   0  # of atoms=   1  estimated weight=         1.00000
 proc =   1  # of atoms=   1  estimated weight=         1.00000
 proc =   2  # of atoms=   1  estimated weight=         1.00000
 proc =   3  # of atoms=   1  estimated weight=         1.00000
 proc =   4  # of atoms=   1  estimated weight=         1.00000
 proc =   5  # of atoms=   1  estimated weight=         1.00000
 proc =   6  # of atoms=   1  estimated weight=         1.00000
 proc =   7  # of atoms=   1  estimated weight=         1.00000
 proc =   8  # of atoms=   1  estimated weight=         1.00000
 proc =   9  # of atoms=   1  estimated weight=         1.00000
 proc =  10  # of atoms=   1  estimated weight=         1.00000
 proc =  11  # of atoms=   1  estimated weight=         1.00000
 proc =  12  # of atoms=   1  estimated weight=         1.00000
 proc =  13  # of atoms=   1  estimated weight=         1.00000
 proc =  14  # of atoms=   1  estimated weight=         1.00000
 proc =  15  # of atoms=   1  estimated weight=         1.00000
 proc =  16  # of atoms=   1  estimated weight=         1.00000
 proc =  17  # of atoms=   1  estimated weight=         1.00000
 proc =  18  # of atoms=   1  estimated weight=         1.00000
 proc =  19  # of atoms=   1  estimated weight=         1.00000
 proc =  20  # of atoms=   1  estimated weight=         1.00000
 proc =  21  # of atoms=   1  estimated weight=         1.00000
 proc =  22  # of atoms=   1  estimated weight=         1.00000
 proc =  23  # of atoms=   1  estimated weight=         1.00000
 proc =  24  # of atoms=   1  estimated weight=         1.00000
 proc =  25  # of atoms=   1  estimated weight=         1.00000
 proc =  26  # of atoms=   1  estimated weight=         1.00000
 proc =  27  # of atoms=   1  estimated weight=         1.00000
 proc =  28  # of atoms=   1  estimated weight=         1.00000
 proc =  29  # of atoms=   1  estimated weight=         1.00000
 proc =  30  # of atoms=   1  estimated weight=         1.00000
 proc =  31  # of atoms=   1  estimated weight=         1.00000
 proc =  32  # of atoms=   1  estimated weight=         1.00000
 proc =  33  # of atoms=   1  estimated weight=         1.00000
 proc =  34  # of atoms=   1  estimated weight=         1.00000
 proc =  35  # of atoms=   1  estimated weight=         1.00000
 proc =  36  # of atoms=   1  estimated weight=         1.00000
 proc =  37  # of atoms=   1  estimated weight=         1.00000
 proc =  38  # of atoms=   1  estimated weight=         1.00000
 proc =  39  # of atoms=   1  estimated weight=         1.00000
 proc =  40  # of atoms=   1  estimated weight=         1.00000
 proc =  41  # of atoms=   1  estimated weight=         1.00000
 proc =  42  # of atoms=   1  estimated weight=         1.00000
 proc =  43  # of atoms=   1  estimated weight=         1.00000
 proc =  44  # of atoms=   1  estimated weight=         1.00000
 proc =  45  # of atoms=   1  estimated weight=         1.00000
 proc =  46  # of atoms=   1  estimated weight=         1.00000
 proc =  47  # of atoms=   1  estimated weight=         1.00000
 proc =  48  # of atoms=   0  estimated weight=         0.00000
 proc =  49  # of atoms=   0  estimated weight=         0.00000
 proc =  50  # of atoms=   0  estimated weight=         0.00000
 proc =  51  # of atoms=   0  estimated weight=         0.00000
 proc =  52  # of atoms=   0  estimated weight=         0.00000
 proc =  53  # of atoms=   0  estimated weight=         0.00000
 proc =  54  # of atoms=   0  estimated weight=         0.00000
 proc =  55  # of atoms=   0  estimated weight=         0.00000
 proc =  56  # of atoms=   0  estimated weight=         0.00000
 proc =  57  # of atoms=   0  estimated weight=         0.00000
 proc =  58  # of atoms=   0  estimated weight=         0.00000
 proc =  59  # of atoms=   0  estimated weight=         0.00000
 proc =  60  # of atoms=   0  estimated weight=         0.00000
 proc =  61  # of atoms=   0  estimated weight=         0.00000
 proc =  62  # of atoms=   0  estimated weight=         0.00000
 proc =  63  # of atoms=   0  estimated weight=         0.00000
 proc =  64  # of atoms=   0  estimated weight=         0.00000
 proc =  65  # of atoms=   0  estimated weight=         0.00000
 proc =  66  # of atoms=   0  estimated weight=         0.00000
 proc =  67  # of atoms=   0  estimated weight=         0.00000
 proc =  68  # of atoms=   0  estimated weight=         0.00000
 proc =  69  # of atoms=   0  estimated weight=         0.00000
 proc =  70  # of atoms=   0  estimated weight=         0.00000
 proc =  71  # of atoms=   0  estimated weight=         0.00000
 proc =  72  # of atoms=   0  estimated weight=         0.00000
 proc =  73  # of atoms=   0  estimated weight=         0.00000
 proc =  74  # of atoms=   0  estimated weight=         0.00000
 proc =  75  # of atoms=   0  estimated weight=         0.00000
 proc =  76  # of atoms=   0  estimated weight=         0.00000
 proc =  77  # of atoms=   0  estimated weight=         0.00000
 proc =  78  # of atoms=   0  estimated weight=         0.00000
 proc =  79  # of atoms=   0  estimated weight=         0.00000
 proc =  80  # of atoms=   0  estimated weight=         0.00000
 proc =  81  # of atoms=   0  estimated weight=         0.00000
 proc =  82  # of atoms=   0  estimated weight=         0.00000
 proc =  83  # of atoms=   0  estimated weight=         0.00000
 proc =  84  # of atoms=   0  estimated weight=         0.00000
 proc =  85  # of atoms=   0  estimated weight=         0.00000
 proc =  86  # of atoms=   0  estimated weight=         0.00000
 proc =  87  # of atoms=   0  estimated weight=         0.00000
 proc =  88  # of atoms=   0  estimated weight=         0.00000
 proc =  89  # of atoms=   0  estimated weight=         0.00000
 proc =  90  # of atoms=   0  estimated weight=         0.00000
 proc =  91  # of atoms=   0  estimated weight=         0.00000
 proc =  92  # of atoms=   0  estimated weight=         0.00000
 proc =  93  # of atoms=   0  estimated weight=         0.00000
 proc =  94  # of atoms=   0  estimated weight=         0.00000
 proc =  95  # of atoms=   0  estimated weight=         0.00000
 proc =  96  # of atoms=   0  estimated weight=         0.00000
 proc =  97  # of atoms=   0  estimated weight=         0.00000
 proc =  98  # of atoms=   0  estimated weight=         0.00000
 proc =  99  # of atoms=   0  estimated weight=         0.00000
 proc = 100  # of atoms=   0  estimated weight=         0.00000
 proc = 101  # of atoms=   0  estimated weight=         0.00000
 proc = 102  # of atoms=   0  estimated weight=         0.00000
 proc = 103  # of atoms=   0  estimated weight=         0.00000
 proc = 104  # of atoms=   0  estimated weight=         0.00000
 proc = 105  # of atoms=   0  estimated weight=         0.00000
 proc = 106  # of atoms=   0  estimated weight=         0.00000
 proc = 107  # of atoms=   0  estimated weight=         0.00000
 proc = 108  # of atoms=   0  estimated weight=         0.00000
 proc = 109  # of atoms=   0  estimated weight=         0.00000
 proc = 110  # of atoms=   0  estimated weight=         0.00000
 proc = 111  # of atoms=   0  estimated weight=         0.00000
 proc = 112  # of atoms=   0  estimated weight=         0.00000
 proc = 113  # of atoms=   0  estimated weight=         0.00000
 proc = 114  # of atoms=   0  estimated weight=         0.00000
 proc = 115  # of atoms=   0  estimated weight=         0.00000
 proc = 116  # of atoms=   0  estimated weight=         0.00000
 proc = 117  # of atoms=   0  estimated weight=         0.00000
 proc = 118  # of atoms=   0  estimated weight=         0.00000
 proc = 119  # of atoms=   0  estimated weight=         0.00000
 proc = 120  # of atoms=   0  estimated weight=         0.00000
 proc = 121  # of atoms=   0  estimated weight=         0.00000
 proc = 122  # of atoms=   0  estimated weight=         0.00000
 proc = 123  # of atoms=   0  estimated weight=         0.00000
 proc = 124  # of atoms=   0  estimated weight=         0.00000
 proc = 125  # of atoms=   0  estimated weight=         0.00000
 proc = 126  # of atoms=   0  estimated weight=         0.00000
 proc = 127  # of atoms=   0  estimated weight=         0.00000




*******************************************************
        Analysis of neighbors and setting of grids        
*******************************************************

TFNAN=    2484   Average FNAN=  51.75000
TSNAN=       0   Average SNAN=   0.00000
<truncation> CpyCell= 1 ct_AN=   1 FNAN SNAN  34   0
<truncation> CpyCell= 1 ct_AN=   2 FNAN SNAN  47   0
<truncation> CpyCell= 1 ct_AN=   3 FNAN SNAN  34   0
<truncation> CpyCell= 1 ct_AN=   4 FNAN SNAN  47   0
<truncation> CpyCell= 1 ct_AN=   5 FNAN SNAN  54   0
<truncation> CpyCell= 1 ct_AN=   6 FNAN SNAN  54   0
<truncation> CpyCell= 1 ct_AN=   7 FNAN SNAN  54   0
<truncation> CpyCell= 1 ct_AN=   8 FNAN SNAN  54   0
<truncation> CpyCell= 1 ct_AN=   9 FNAN SNAN  54   0
<truncation> CpyCell= 1 ct_AN=  10 FNAN SNAN  54   0
<truncation> CpyCell= 1 ct_AN=  11 FNAN SNAN  54   0
<truncation> CpyCell= 1 ct_AN=  12 FNAN SNAN  54   0
<truncation> CpyCell= 1 ct_AN=  13 FNAN SNAN  54   0
<truncation> CpyCell= 1 ct_AN=  14 FNAN SNAN  54   0
<truncation> CpyCell= 1 ct_AN=  15 FNAN SNAN  54   0
<truncation> CpyCell= 1 ct_AN=  16 FNAN SNAN  54   0
<truncation> CpyCell= 1 ct_AN=  17 FNAN SNAN  54   0
<truncation> CpyCell= 1 ct_AN=  18 FNAN SNAN  54   0
<truncation> CpyCell= 1 ct_AN=  19 FNAN SNAN  54   0
<truncation> CpyCell= 1 ct_AN=  20 FNAN SNAN  54   0
     ..........
     ......

TFNAN=    2952   Average FNAN=  61.50000
TSNAN=       0   Average SNAN=   0.00000
<truncation> CpyCell= 2 ct_AN=   1 FNAN SNAN  41   0
<truncation> CpyCell= 2 ct_AN=   2 FNAN SNAN  57   0
<truncation> CpyCell= 2 ct_AN=   3 FNAN SNAN  41   0
<truncation> CpyCell= 2 ct_AN=   4 FNAN SNAN  57   0
<truncation> CpyCell= 2 ct_AN=   5 FNAN SNAN  64   0
<truncation> CpyCell= 2 ct_AN=   6 FNAN SNAN  64   0
<truncation> CpyCell= 2 ct_AN=   7 FNAN SNAN  64   0
<truncation> CpyCell= 2 ct_AN=   8 FNAN SNAN  64   0
<truncation> CpyCell= 2 ct_AN=   9 FNAN SNAN  64   0
<truncation> CpyCell= 2 ct_AN=  10 FNAN SNAN  64   0
<truncation> CpyCell= 2 ct_AN=  11 FNAN SNAN  64   0
<truncation> CpyCell= 2 ct_AN=  12 FNAN SNAN  64   0
<truncation> CpyCell= 2 ct_AN=  13 FNAN SNAN  64   0
<truncation> CpyCell= 2 ct_AN=  14 FNAN SNAN  64   0
<truncation> CpyCell= 2 ct_AN=  15 FNAN SNAN  64   0
<truncation> CpyCell= 2 ct_AN=  16 FNAN SNAN  64   0
<truncation> CpyCell= 2 ct_AN=  17 FNAN SNAN  64   0
<truncation> CpyCell= 2 ct_AN=  18 FNAN SNAN  64   0
<truncation> CpyCell= 2 ct_AN=  19 FNAN SNAN  64   0
<truncation> CpyCell= 2 ct_AN=  20 FNAN SNAN  64   0
     ..........
     ......

TFNAN=    2952   Average FNAN=  61.50000
TSNAN=       0   Average SNAN=   0.00000
<truncation> CpyCell= 3 ct_AN=   1 FNAN SNAN  41   0
<truncation> CpyCell= 3 ct_AN=   2 FNAN SNAN  57   0
<truncation> CpyCell= 3 ct_AN=   3 FNAN SNAN  41   0
<truncation> CpyCell= 3 ct_AN=   4 FNAN SNAN  57   0
<truncation> CpyCell= 3 ct_AN=   5 FNAN SNAN  64   0
<truncation> CpyCell= 3 ct_AN=   6 FNAN SNAN  64   0
<truncation> CpyCell= 3 ct_AN=   7 FNAN SNAN  64   0
<truncation> CpyCell= 3 ct_AN=   8 FNAN SNAN  64   0
<truncation> CpyCell= 3 ct_AN=   9 FNAN SNAN  64   0
<truncation> CpyCell= 3 ct_AN=  10 FNAN SNAN  64   0
<truncation> CpyCell= 3 ct_AN=  11 FNAN SNAN  64   0
<truncation> CpyCell= 3 ct_AN=  12 FNAN SNAN  64   0
<truncation> CpyCell= 3 ct_AN=  13 FNAN SNAN  64   0
<truncation> CpyCell= 3 ct_AN=  14 FNAN SNAN  64   0
<truncation> CpyCell= 3 ct_AN=  15 FNAN SNAN  64   0
<truncation> CpyCell= 3 ct_AN=  16 FNAN SNAN  64   0
<truncation> CpyCell= 3 ct_AN=  17 FNAN SNAN  64   0
<truncation> CpyCell= 3 ct_AN=  18 FNAN SNAN  64   0
<truncation> CpyCell= 3 ct_AN=  19 FNAN SNAN  64   0
<truncation> CpyCell= 3 ct_AN=  20 FNAN SNAN  64   0
     ..........
     ......

TFNAN=    2952   Average FNAN=  61.50000
TSNAN=       0   Average SNAN=   0.00000
<truncation> CpyCell= 3 ct_AN=   1 FNAN SNAN  41   0
<truncation> CpyCell= 3 ct_AN=   2 FNAN SNAN  57   0
<truncation> CpyCell= 3 ct_AN=   3 FNAN SNAN  41   0
<truncation> CpyCell= 3 ct_AN=   4 FNAN SNAN  57   0
<truncation> CpyCell= 3 ct_AN=   5 FNAN SNAN  64   0
<truncation> CpyCell= 3 ct_AN=   6 FNAN SNAN  64   0
<truncation> CpyCell= 3 ct_AN=   7 FNAN SNAN  64   0
<truncation> CpyCell= 3 ct_AN=   8 FNAN SNAN  64   0
<truncation> CpyCell= 3 ct_AN=   9 FNAN SNAN  64   0
<truncation> CpyCell= 3 ct_AN=  10 FNAN SNAN  64   0
<truncation> CpyCell= 3 ct_AN=  11 FNAN SNAN  64   0
<truncation> CpyCell= 3 ct_AN=  12 FNAN SNAN  64   0
<truncation> CpyCell= 3 ct_AN=  13 FNAN SNAN  64   0
<truncation> CpyCell= 3 ct_AN=  14 FNAN SNAN  64   0
<truncation> CpyCell= 3 ct_AN=  15 FNAN SNAN  64   0
<truncation> CpyCell= 3 ct_AN=  16 FNAN SNAN  64   0
<truncation> CpyCell= 3 ct_AN=  17 FNAN SNAN  64   0
<truncation> CpyCell= 3 ct_AN=  18 FNAN SNAN  64   0
<truncation> CpyCell= 3 ct_AN=  19 FNAN SNAN  64   0
<truncation> CpyCell= 3 ct_AN=  20 FNAN SNAN  64   0
     ..........
     ......

<Check_System> The system is slab.
lattice vectors (bohr)
A  = 11.281664151816,  0.000000000000,  0.000000000000
B  =  0.000000000000,  6.081138231247,  0.000000000000
C  =  0.000000000000,  0.000000000000, 186.430917403254
reciprocal lattice vectors (bohr^-1)
RA =  0.556937808343,  0.000000000000,  0.000000000000
RB =  0.000000000000,  1.033225206902,  0.000000000000
RC =  0.000000000000,  0.000000000000,  0.033702485589
Grid_Origin -2.707599396436 -0.647528607957  0.110970784169
Cell_Volume =  12790.160051769377 (Bohr^3)
GridVol     =      0.011278800751 (Bohr^3)
Grid_Origin -2.707599396436 -0.647528607957  0.110970784169
Cell_Volume =  12790.160051769377 (Bohr^3)
GridVol     =      0.011278800751 (Bohr^3)
<UCell_Box> Info. of cutoff energy and num. of grids
lattice vectors (bohr)
A  = 11.281664151816,  0.000000000000,  0.000000000000
B  =  0.000000000000,  6.081138231247,  0.000000000000
C  =  0.000000000000,  0.000000000000, 186.430917403254
reciprocal lattice vectors (bohr^-1)
RA =  0.556937808343,  0.000000000000,  0.000000000000
RB =  0.000000000000,  1.033225206902,  0.000000000000
RC =  0.000000000000,  0.000000000000,  0.033702485589
Required cutoff energy (Ryd) for 3D-grids = 200.0000
    Used cutoff energy (Ryd) for 3D-grids = 193.8623, 194.5618, 200.3653
Num. of grids of a-, b-, and c-axes = 50, 27, 840
Grid_Origin -2.707599396436 -0.647528607957  0.110970784169
Cell_Volume =  12790.160051769377 (Bohr^3)
GridVol     =      0.011278800751 (Bohr^3)
Cell vectors (bohr) of the grid cell (gtv)
  gtv_a =  0.225633283036,  0.000000000000,  0.000000000000
  gtv_b =  0.000000000000,  0.225227341898,  0.000000000000
  gtv_c =  0.000000000000,  0.000000000000,  0.221941568337
  |gtv_a| =  0.225633283036
  |gtv_b| =  0.225227341898
  |gtv_c| =  0.221941568337
Num. of grids overlapping with atom    1 = 127326
Num. of grids overlapping with atom    2 = 127380
Num. of grids overlapping with atom    3 = 127319
Num. of grids overlapping with atom    4 = 127329
Num. of grids overlapping with atom    5 = 127396
Num. of grids overlapping with atom    6 = 127344
Num. of grids overlapping with atom    7 = 127329
Num. of grids overlapping with atom    8 = 127326
Num. of grids overlapping with atom    9 = 127322
Num. of grids overlapping with atom   10 = 127320
Num. of grids overlapping with atom   11 = 127295
Num. of grids overlapping with atom   12 = 127306
Num. of grids overlapping with atom   13 = 127281
Num. of grids overlapping with atom   14 = 127330
Num. of grids overlapping with atom   15 = 127284
Num. of grids overlapping with atom   16 = 127343
Num. of grids overlapping with atom   17 = 127312
Num. of grids overlapping with atom   18 = 127302
Num. of grids overlapping with atom   19 = 127332
Num. of grids overlapping with atom   20 = 127348
     ..........
     ......


*******************************************************
             SCF calculation at MD = 1                
*******************************************************

<MD= 1>  Calculation of the overlap matrix
<MD= 1>  Calculation of the nonlocal matrix
<MD= 1>  Calculation of the VNA projector matrix

******************* MD= 1  SCF= 1 *******************
<Restart>  Found restart files
<Poisson>  Poisson's equation using FFT...
<Band>  Solving the eigenvalue problem...
 KGrids1:  -0.43750  -0.31250  -0.18750  -0.06250   0.06250   0.18750   0.31250   0.43750 
 KGrids2:  -0.46429  -0.39286  -0.32143  -0.25000  -0.17857  -0.10714  -0.03572   0.03571   0.10714   0.17857   0.25000   0.32143   0.39286   0.46428 
 KGrids3:   0.00000 
<Band_DFT>  Eigen, time=2.736701
<Band_DFT>  DM, time=0.000004
    1   Sn  MulP   7.0018  7.0018 sum  14.0035
    2   Sn  MulP   6.9984  6.9984 sum  13.9967
    3   Sn  MulP   7.0006  7.0006 sum  14.0012
    4   Sn  MulP   6.9989  6.9989 sum  13.9978
    5   Sn  MulP   6.9994  6.9994 sum  13.9989
    6   Sn  MulP   7.0004  7.0004 sum  14.0008
    7   Sn  MulP   7.0012  7.0012 sum  14.0023
    8   Sn  MulP   6.9995  6.9995 sum  13.9989
    9   Sn  MulP   6.9997  6.9997 sum  13.9993
   10   Sn  MulP   7.0008  7.0008 sum  14.0015
   11   Sn  MulP   6.9994  6.9994 sum  13.9988
   12   Sn  MulP   7.0002  7.0002 sum  14.0004
   13   Sn  MulP   6.9994  6.9994 sum  13.9989
   14   Sn  MulP   7.0007  7.0007 sum  14.0015
   15   Sn  MulP   6.9998  6.9998 sum  13.9996
   16   Sn  MulP   7.0003  7.0003 sum  14.0006
   17   Sn  MulP   6.9993  6.9993 sum  13.9986
   18   Sn  MulP   7.0004  7.0004 sum  14.0007
   19   Sn  MulP   6.9998  6.9998 sum  13.9997
   20   Sn  MulP   7.0001  7.0001 sum  14.0002
     ..........
     ......

 Sum of MulP: up   =   336.00000 down          =   336.00000
              total=   672.00000 ideal(neutral)=   672.00000
<DFT>  Total Spin Moment (muB) =  0.000000000000
<DFT>  Mixing_weight= 0.005000000000
<DFT>  Uele   = -503.669853641796  dUele     =   1.000000000000
<DFT>  NormRD =    1.000000000000  Criterion =   0.000000100000

******************* MD= 1  SCF= 2 *******************
<Poisson>  Poisson's equation using FFT...
<Set_Hamiltonian>  Hamiltonian matrix for VNA+dVH+Vxc...
<Band>  Solving the eigenvalue problem...
 KGrids1:  -0.43750  -0.31250  -0.18750  -0.06250   0.06250   0.18750   0.31250   0.43750 
 KGrids2:  -0.46429  -0.39286  -0.32143  -0.25000  -0.17857  -0.10714  -0.03572   0.03571   0.10714   0.17857   0.25000   0.32143   0.39286   0.46428 
 KGrids3:   0.00000 
<Band_DFT>  Eigen, time=1.295593
<Band_DFT>  DM, time=0.000000
    1   Sn  MulP   7.0018  7.0018 sum  14.0035
    2   Sn  MulP   6.9984  6.9984 sum  13.9967
    3   Sn  MulP   7.0006  7.0006 sum  14.0012
    4   Sn  MulP   6.9989  6.9989 sum  13.9978
    5   Sn  MulP   6.9994  6.9994 sum  13.9989
    6   Sn  MulP   7.0004  7.0004 sum  14.0008
    7   Sn  MulP   7.0012  7.0012 sum  14.0023
    8   Sn  MulP   6.9995  6.9995 sum  13.9989
    9   Sn  MulP   6.9997  6.9997 sum  13.9993
   10   Sn  MulP   7.0008  7.0008 sum  14.0015
   11   Sn  MulP   6.9994  6.9994 sum  13.9988
   12   Sn  MulP   7.0002  7.0002 sum  14.0004
   13   Sn  MulP   6.9994  6.9994 sum  13.9989
   14   Sn  MulP   7.0007  7.0007 sum  14.0015
   15   Sn  MulP   6.9998  6.9998 sum  13.9996
   16   Sn  MulP   7.0003  7.0003 sum  14.0006
   17   Sn  MulP   6.9993  6.9993 sum  13.9986
   18   Sn  MulP   7.0004  7.0004 sum  14.0007
   19   Sn  MulP   6.9998  6.9998 sum  13.9997
   20   Sn  MulP   7.0001  7.0001 sum  14.0002
     ..........
     ......

 Sum of MulP: up   =   336.00000 down          =   336.00000
              total=   672.00000 ideal(neutral)=   672.00000
<DFT>  Total Spin Moment (muB) =  0.000000000000
<DFT>  Mixing_weight= 0.005000915895
<DFT>  Uele   = -503.669853641789  dUele     =   0.000000000006
<DFT>  NormRD =    0.013533123626  Criterion =   0.000000100000

******************* MD= 1  SCF= 3 *******************
<Poisson>  Poisson's equation using FFT...
<Set_Hamiltonian>  Hamiltonian matrix for VNA+dVH+Vxc...
<Band>  Solving the eigenvalue problem...
 KGrids1:  -0.43750  -0.31250  -0.18750  -0.06250   0.06250   0.18750   0.31250   0.43750 
 KGrids2:  -0.46429  -0.39286  -0.32143  -0.25000  -0.17857  -0.10714  -0.03572   0.03571   0.10714   0.17857   0.25000   0.32143   0.39286   0.46428 
 KGrids3:   0.00000 
<Band_DFT>  Eigen, time=1.290142
<Band_DFT>  DM, time=0.000000
    1   Sn  MulP   7.0018  7.0018 sum  14.0036
    2   Sn  MulP   6.9984  6.9984 sum  13.9968
    3   Sn  MulP   7.0006  7.0006 sum  14.0013
    4   Sn  MulP   6.9989  6.9989 sum  13.9979
    5   Sn  MulP   6.9995  6.9995 sum  13.9990
    6   Sn  MulP   7.0004  7.0004 sum  14.0008
    7   Sn  MulP   7.0012  7.0012 sum  14.0024
    8   Sn  MulP   6.9995  6.9995 sum  13.9990
    9   Sn  MulP   6.9997  6.9997 sum  13.9993
   10   Sn  MulP   7.0008  7.0008 sum  14.0015
   11   Sn  MulP   6.9994  6.9994 sum  13.9988
   12   Sn  MulP   7.0002  7.0002 sum  14.0004
   13   Sn  MulP   6.9994  6.9994 sum  13.9989
   14   Sn  MulP   7.0007  7.0007 sum  14.0014
   15   Sn  MulP   6.9998  6.9998 sum  13.9996
   16   Sn  MulP   7.0003  7.0003 sum  14.0006
   17   Sn  MulP   6.9993  6.9993 sum  13.9986
   18   Sn  MulP   7.0004  7.0004 sum  14.0007
   19   Sn  MulP   6.9998  6.9998 sum  13.9997
   20   Sn  MulP   7.0001  7.0001 sum  14.0002
     ..........
     ......

 Sum of MulP: up   =   336.00000 down          =   336.00000
              total=   672.00000 ideal(neutral)=   672.00000
<DFT>  Total Spin Moment (muB) =  0.000000000000
<DFT>  Mixing_weight= 0.030000000000
<DFT>  Uele   = -503.669335368931  dUele     =   0.000518272859
<DFT>  NormRD =    0.013432798677  Criterion =   0.000000100000

******************* MD= 1  SCF= 4 *******************
<Poisson>  Poisson's equation using FFT...
<Set_Hamiltonian>  Hamiltonian matrix for VNA+dVH+Vxc...
<Band>  Solving the eigenvalue problem...
 KGrids1:  -0.43750  -0.31250  -0.18750  -0.06250   0.06250   0.18750   0.31250   0.43750 
 KGrids2:  -0.46429  -0.39286  -0.32143  -0.25000  -0.17857  -0.10714  -0.03572   0.03571   0.10714   0.17857   0.25000   0.32143   0.39286   0.46428 
 KGrids3:   0.00000 
<Band_DFT>  Eigen, time=1.298489
<Band_DFT>  DM, time=0.000000
    1   Sn  MulP   7.0020  7.0020 sum  14.0040
    2   Sn  MulP   6.9985  6.9985 sum  13.9971
    3   Sn  MulP   7.0007  7.0007 sum  14.0014
    4   Sn  MulP   6.9991  6.9991 sum  13.9981
    5   Sn  MulP   6.9996  6.9996 sum  13.9992
    6   Sn  MulP   7.0004  7.0004 sum  14.0008
    7   Sn  MulP   7.0013  7.0013 sum  14.0025
    8   Sn  MulP   6.9995  6.9995 sum  13.9990
    9   Sn  MulP   6.9996  6.9996 sum  13.9993
   10   Sn  MulP   7.0007  7.0007 sum  14.0014
   11   Sn  MulP   6.9994  6.9994 sum  13.9988
   12   Sn  MulP   7.0002  7.0002 sum  14.0003
   13   Sn  MulP   6.9994  6.9994 sum  13.9988
   14   Sn  MulP   7.0006  7.0006 sum  14.0013
   15   Sn  MulP   6.9997  6.9997 sum  13.9995
   16   Sn  MulP   7.0002  7.0002 sum  14.0004
   17   Sn  MulP   6.9993  6.9993 sum  13.9985
   18   Sn  MulP   7.0003  7.0003 sum  14.0007
   19   Sn  MulP   6.9998  6.9998 sum  13.9996
   20   Sn  MulP   7.0001  7.0001 sum  14.0001
     ..........
     ......

 Sum of MulP: up   =   336.00000 down          =   336.00000
              total=   672.00000 ideal(neutral)=   672.00000
<DFT>  Total Spin Moment (muB) =  0.000000000000
<DFT>  Mixing_weight= 0.030000000000
<DFT>  Uele   = -503.668249995149  dUele     =   0.001085373782
<DFT>  NormRD =    0.012927364849  Criterion =   0.000000100000

******************* MD= 1  SCF= 5 *******************
<Poisson>  Poisson's equation using FFT...
<Set_Hamiltonian>  Hamiltonian matrix for VNA+dVH+Vxc...
<Band>  Solving the eigenvalue problem...
 KGrids1:  -0.43750  -0.31250  -0.18750  -0.06250   0.06250   0.18750   0.31250   0.43750 
 KGrids2:  -0.46429  -0.39286  -0.32143  -0.25000  -0.17857  -0.10714  -0.03572   0.03571   0.10714   0.17857   0.25000   0.32143   0.39286   0.46428 
 KGrids3:   0.00000 
<Band_DFT>  Eigen, time=1.285263
<Band_DFT>  DM, time=0.000000
    1   Sn  MulP   7.0018  7.0018 sum  14.0036
    2   Sn  MulP   6.9984  6.9984 sum  13.9968
    3   Sn  MulP   7.0003  7.0003 sum  14.0007
    4   Sn  MulP   6.9989  6.9989 sum  13.9979
    5   Sn  MulP   6.9995  6.9995 sum  13.9989
    6   Sn  MulP   7.0003  7.0003 sum  14.0006
    7   Sn  MulP   7.0011  7.0011 sum  14.0023
    8   Sn  MulP   6.9994  6.9994 sum  13.9988
    9   Sn  MulP   6.9996  6.9996 sum  13.9992
   10   Sn  MulP   7.0007  7.0007 sum  14.0014
   11   Sn  MulP   6.9993  6.9993 sum  13.9987
   12   Sn  MulP   7.0001  7.0001 sum  14.0003
   13   Sn  MulP   6.9994  6.9994 sum  13.9988
   14   Sn  MulP   7.0007  7.0007 sum  14.0014
   15   Sn  MulP   6.9998  6.9998 sum  13.9995
   16   Sn  MulP   7.0002  7.0002 sum  14.0005
   17   Sn  MulP   6.9994  6.9994 sum  13.9987
   18   Sn  MulP   7.0005  7.0005 sum  14.0009
   19   Sn  MulP   6.9999  6.9999 sum  13.9998
   20   Sn  MulP   7.0002  7.0002 sum  14.0004
     ..........
     ......

 Sum of MulP: up   =   336.00000 down          =   336.00000
              total=   672.00000 ideal(neutral)=   672.00000
<DFT>  Total Spin Moment (muB) =  0.000000000000
<DFT>  Mixing_weight= 0.030000000000
<DFT>  Uele   = -503.673117165541  dUele     =   0.004867170392
<DFT>  NormRD =    0.012507383168  Criterion =   0.000000100000

******************* MD= 1  SCF= 6 *******************
<Poisson>  Poisson's equation using FFT...
<Set_Hamiltonian>  Hamiltonian matrix for VNA+dVH+Vxc...
<Band>  Solving the eigenvalue problem...
 KGrids1:  -0.43750  -0.31250  -0.18750  -0.06250   0.06250   0.18750   0.31250   0.43750 
 KGrids2:  -0.46429  -0.39286  -0.32143  -0.25000  -0.17857  -0.10714  -0.03572   0.03571   0.10714   0.17857   0.25000   0.32143   0.39286   0.46428 
 KGrids3:   0.00000 
<Band_DFT>  Eigen, time=1.274336
<Band_DFT>  DM, time=0.000000
    1   Sn  MulP   7.0024  7.0024 sum  14.0047
    2   Sn  MulP   6.9988  6.9988 sum  13.9976
    3   Sn  MulP   7.0008  7.0008 sum  14.0016
    4   Sn  MulP   6.9993  6.9993 sum  13.9987
    5   Sn  MulP   6.9998  6.9998 sum  13.9996
    6   Sn  MulP   7.0005  7.0005 sum  14.0010
    7   Sn  MulP   7.0015  7.0015 sum  14.0029
    8   Sn  MulP   6.9996  6.9996 sum  13.9993
    9   Sn  MulP   6.9997  6.9997 sum  13.9994
   10   Sn  MulP   7.0007  7.0007 sum  14.0015
   11   Sn  MulP   6.9995  6.9995 sum  13.9991
   12   Sn  MulP   7.0002  7.0002 sum  14.0004
   13   Sn  MulP   6.9994  6.9994 sum  13.9988
   14   Sn  MulP   7.0006  7.0006 sum  14.0011
   15   Sn  MulP   6.9997  6.9997 sum  13.9995
   16   Sn  MulP   7.0001  7.0001 sum  14.0002
   17   Sn  MulP   6.9992  6.9992 sum  13.9984
   18   Sn  MulP   7.0002  7.0002 sum  14.0005
   19   Sn  MulP   6.9997  6.9997 sum  13.9995
   20   Sn  MulP   6.9999  6.9999 sum  13.9999
     ..........
     ......

 Sum of MulP: up   =   336.00000 down          =   336.00000
              total=   672.00000 ideal(neutral)=   672.00000
<DFT>  Total Spin Moment (muB) =  0.000000000000
<DFT>  Mixing_weight= 0.030000000000
<DFT>  Uele   = -503.666148566157  dUele     =   0.006968599384
<DFT>  NormRD =    0.012363496506  Criterion =   0.000000100000

******************* MD= 1  SCF= 7 *******************
<Poisson>  Poisson's equation using FFT...
<Set_Hamiltonian>  Hamiltonian matrix for VNA+dVH+Vxc...
<Band>  Solving the eigenvalue problem...
 KGrids1:  -0.43750  -0.31250  -0.18750  -0.06250   0.06250   0.18750   0.31250   0.43750 
 KGrids2:  -0.46429  -0.39286  -0.32143  -0.25000  -0.17857  -0.10714  -0.03572   0.03571   0.10714   0.17857   0.25000   0.32143   0.39286   0.46428 
 KGrids3:   0.00000 
<Band_DFT>  Eigen, time=1.743962
<Band_DFT>  DM, time=0.000000
    1   Sn  MulP   7.0011  7.0011 sum  14.0021
    2   Sn  MulP   6.9979  6.9979 sum  13.9957
    3   Sn  MulP   6.9994  6.9994 sum  13.9987
    4   Sn  MulP   6.9984  6.9984 sum  13.9969
    5   Sn  MulP   6.9990  6.9990 sum  13.9980
    6   Sn  MulP   6.9999  6.9999 sum  13.9998
    7   Sn  MulP   7.0006  7.0006 sum  14.0013
    8   Sn  MulP   6.9991  6.9991 sum  13.9981
    9   Sn  MulP   6.9993  6.9993 sum  13.9985
   10   Sn  MulP   7.0005  7.0005 sum  14.0010
   11   Sn  MulP   6.9991  6.9991 sum  13.9982
   12   Sn  MulP   7.0000  7.0000 sum  13.9999
   13   Sn  MulP   6.9994  6.9994 sum  13.9987
   14   Sn  MulP   7.0007  7.0007 sum  14.0015
   15   Sn  MulP   6.9997  6.9997 sum  13.9994
   16   Sn  MulP   7.0003  7.0003 sum  14.0006
   17   Sn  MulP   6.9995  6.9995 sum  13.9990
   18   Sn  MulP   7.0007  7.0007 sum  14.0014
   19   Sn  MulP   7.0001  7.0001 sum  14.0001
   20   Sn  MulP   7.0004  7.0004 sum  14.0008
     ..........
     ......

 Sum of MulP: up   =   336.00000 down          =   336.00000
              total=   672.00000 ideal(neutral)=   672.00000
<DFT>  Total Spin Moment (muB) =  0.000000000000
<DFT>  Mixing_weight= 0.013482501019
<DFT>  Uele   = -503.684426332154  dUele     =   0.018277765997
<DFT>  NormRD =    0.013684477627  Criterion =   0.000000100000

******************* MD= 1  SCF= 8 *******************
<Poisson>  Poisson's equation using FFT...
<Set_Hamiltonian>  Hamiltonian matrix for VNA+dVH+Vxc...
<Band>  Solving the eigenvalue problem...
 KGrids1:  -0.43750  -0.31250  -0.18750  -0.06250   0.06250   0.18750   0.31250   0.43750 
 KGrids2:  -0.46429  -0.39286  -0.32143  -0.25000  -0.17857  -0.10714  -0.03572   0.03571   0.10714   0.17857   0.25000   0.32143   0.39286   0.46428 
 KGrids3:   0.00000 
<Band_DFT>  Eigen, time=1.568567
<Band_DFT>  DM, time=0.000000
    1   Sn  MulP   7.0027  7.0027 sum  14.0053
    2   Sn  MulP   6.9991  6.9991 sum  13.9981
    3   Sn  MulP   7.0010  7.0010 sum  14.0020
    4   Sn  MulP   6.9996  6.9996 sum  13.9991
    5   Sn  MulP   7.0001  7.0001 sum  14.0001
    6   Sn  MulP   7.0006  7.0006 sum  14.0013
    7   Sn  MulP   7.0017  7.0017 sum  14.0034
    8   Sn  MulP   6.9998  6.9998 sum  13.9996
    9   Sn  MulP   6.9999  6.9999 sum  13.9998
   10   Sn  MulP   7.0009  7.0009 sum  14.0019
   11   Sn  MulP   6.9998  6.9998 sum  13.9995
   12   Sn  MulP   7.0004  7.0004 sum  14.0008
   13   Sn  MulP   6.9996  6.9996 sum  13.9992
   14   Sn  MulP   7.0007  7.0007 sum  14.0014
   15   Sn  MulP   6.9999  6.9999 sum  13.9999
   16   Sn  MulP   7.0002  7.0002 sum  14.0005
   17   Sn  MulP   6.9993  6.9993 sum  13.9986
   18   Sn  MulP   7.0003  7.0003 sum  14.0007
   19   Sn  MulP   6.9999  6.9999 sum  13.9998
   20   Sn  MulP   7.0000  7.0000 sum  14.0001
     ..........
     ......

 Sum of MulP: up   =   336.00000 down          =   336.00000
              total=   672.00000 ideal(neutral)=   672.00000
<DFT>  Total Spin Moment (muB) =  0.000000000000
<DFT>  Mixing_weight= 0.030000000000
<DFT>  Uele   = -503.667754633974  dUele     =   0.016671698180
<DFT>  NormRD =    0.012450995093  Criterion =   0.000000100000

******************* MD= 1  SCF= 9 *******************
<Poisson>  Poisson's equation using FFT...
<Set_Hamiltonian>  Hamiltonian matrix for VNA+dVH+Vxc...
<Band>  Solving the eigenvalue problem...
 KGrids1:  -0.43750  -0.31250  -0.18750  -0.06250   0.06250   0.18750   0.31250   0.43750 
 KGrids2:  -0.46429  -0.39286  -0.32143  -0.25000  -0.17857  -0.10714  -0.03572   0.03571   0.10714   0.17857   0.25000   0.32143   0.39286   0.46428 
 KGrids3:   0.00000 
<Band_DFT>  Eigen, time=1.316911
<Band_DFT>  DM, time=0.000000
    1   Sn  MulP   7.0000  7.0000 sum  13.9999
    2   Sn  MulP   6.9970  6.9970 sum  13.9939
    3   Sn  MulP   6.9981  6.9981 sum  13.9962
    4   Sn  MulP   6.9976  6.9976 sum  13.9952
    5   Sn  MulP   6.9981  6.9981 sum  13.9962
    6   Sn  MulP   6.9991  6.9991 sum  13.9982
    7   Sn  MulP   6.9997  6.9997 sum  13.9994
    8   Sn  MulP   6.9983  6.9983 sum  13.9965
    9   Sn  MulP   6.9984  6.9984 sum  13.9968
   10   Sn  MulP   6.9997  6.9997 sum  13.9994
   11   Sn  MulP   6.9982  6.9982 sum  13.9965
   12   Sn  MulP   6.9992  6.9992 sum  13.9983
   13   Sn  MulP   6.9986  6.9986 sum  13.9973
   14   Sn  MulP   7.0001  7.0001 sum  14.0003
   15   Sn  MulP   6.9990  6.9990 sum  13.9980
   16   Sn  MulP   6.9997  6.9997 sum  13.9994
   17   Sn  MulP   6.9990  6.9990 sum  13.9980
   18   Sn  MulP   7.0003  7.0003 sum  14.0006
   19   Sn  MulP   6.9996  6.9996 sum  13.9992
   20   Sn  MulP   7.0000  7.0000 sum  13.9999
     ..........
     ......

 Sum of MulP: up   =   336.00000 down          =   336.00000
              total=   672.00000 ideal(neutral)=   672.00000
<DFT>  Total Spin Moment (muB) =  0.000000000000
<DFT>  Mixing_weight= 0.007311632944
<DFT>  Uele   = -503.684712010318  dUele     =   0.016957376344
<DFT>  NormRD =    0.021933022860  Criterion =   0.000000100000

******************* MD= 1  SCF=10 *******************
<Poisson>  Poisson's equation using FFT...
<Set_Hamiltonian>  Hamiltonian matrix for VNA+dVH+Vxc...
<Band>  Solving the eigenvalue problem...
 KGrids1:  -0.43750  -0.31250  -0.18750  -0.06250   0.06250   0.18750   0.31250   0.43750 
 KGrids2:  -0.46429  -0.39286  -0.32143  -0.25000  -0.17857  -0.10714  -0.03572   0.03571   0.10714   0.17857   0.25000   0.32143   0.39286   0.46428 
 KGrids3:   0.00000 
<Band_DFT>  Eigen, time=1.273745
<Band_DFT>  DM, time=0.000000
    1   Sn  MulP   7.0023  7.0023 sum  14.0046
    2   Sn  MulP   6.9988  6.9988 sum  13.9976
    3   Sn  MulP   7.0005  7.0005 sum  14.0010
    4   Sn  MulP   6.9993  6.9993 sum  13.9986
    5   Sn  MulP   6.9999  6.9999 sum  13.9997
    6   Sn  MulP   7.0005  7.0005 sum  14.0010
    7   Sn  MulP   7.0015  7.0015 sum  14.0029
    8   Sn  MulP   6.9997  6.9997 sum  13.9994
    9   Sn  MulP   6.9998  6.9998 sum  13.9997
   10   Sn  MulP   7.0009  7.0009 sum  14.0019
   11   Sn  MulP   6.9997  6.9997 sum  13.9994
   12   Sn  MulP   7.0004  7.0004 sum  14.0008
   13   Sn  MulP   6.9997  6.9997 sum  13.9993
   14   Sn  MulP   7.0009  7.0009 sum  14.0017
   15   Sn  MulP   7.0000  7.0000 sum  14.0000
   16   Sn  MulP   7.0004  7.0004 sum  14.0008
   17   Sn  MulP   6.9995  6.9995 sum  13.9990
   18   Sn  MulP   7.0006  7.0006 sum  14.0012
   19   Sn  MulP   7.0001  7.0001 sum  14.0002
   20   Sn  MulP   7.0003  7.0003 sum  14.0006
     ..........
     ......

 Sum of MulP: up   =   336.00000 down          =   336.00000
              total=   672.00000 ideal(neutral)=   672.00000
<DFT>  Total Spin Moment (muB) =  0.000000000000
<DFT>  Mixing_weight= 0.010336031277
<DFT>  Uele   = -503.676224912479  dUele     =   0.008487097839
<DFT>  NormRD =    0.011864271566  Criterion =   0.000000100000

******************* MD= 1  SCF=11 *******************
<Poisson>  Poisson's equation using FFT...
<Set_Hamiltonian>  Hamiltonian matrix for VNA+dVH+Vxc...
<Band>  Solving the eigenvalue problem...
 KGrids1:  -0.43750  -0.31250  -0.18750  -0.06250   0.06250   0.18750   0.31250   0.43750 
 KGrids2:  -0.46429  -0.39286  -0.32143  -0.25000  -0.17857  -0.10714  -0.03572   0.03571   0.10714   0.17857   0.25000   0.32143   0.39286   0.46428 
 KGrids3:   0.00000 
<Band_DFT>  Eigen, time=1.288053
<Band_DFT>  DM, time=0.000000
    1   Sn  MulP   7.0018  7.0018 sum  14.0036
    2   Sn  MulP   6.9984  6.9984 sum  13.9967
    3   Sn  MulP   6.9999  6.9999 sum  13.9999
    4   Sn  MulP   6.9989  6.9989 sum  13.9978
    5   Sn  MulP   6.9994  6.9994 sum  13.9988
    6   Sn  MulP   7.0001  7.0001 sum  14.0002
    7   Sn  MulP   7.0010  7.0010 sum  14.0020
    8   Sn  MulP   6.9993  6.9993 sum  13.9986
    9   Sn  MulP   6.9994  6.9994 sum  13.9988
   10   Sn  MulP   7.0005  7.0005 sum  14.0010
   11   Sn  MulP   6.9992  6.9992 sum  13.9985
   12   Sn  MulP   7.0000  7.0000 sum  13.9999
   13   Sn  MulP   6.9992  6.9992 sum  13.9985
   14   Sn  MulP   7.0005  7.0005 sum  14.0010
   15   Sn  MulP   6.9996  6.9996 sum  13.9992
   16   Sn  MulP   7.0000  7.0000 sum  14.0000
   17   Sn  MulP   6.9992  6.9992 sum  13.9984
   18   Sn  MulP   7.0003  7.0003 sum  14.0006
   19   Sn  MulP   6.9998  6.9998 sum  13.9995
   20   Sn  MulP   7.0000  7.0000 sum  14.0000
     ..........
     ......

 Sum of MulP: up   =   336.00000 down          =   336.00000
              total=   672.00000 ideal(neutral)=   672.00000
<DFT>  Total Spin Moment (muB) =  0.000000000000
<DFT>  Mixing_weight= 0.030000000000
<DFT>  Uele   = -503.673747020484  dUele     =   0.002477891996
<DFT>  NormRD =    0.011287770802  Criterion =   0.000000100000

******************* MD= 1  SCF=12 *******************
<Poisson>  Poisson's equation using FFT...
<Set_Hamiltonian>  Hamiltonian matrix for VNA+dVH+Vxc...
<Band>  Solving the eigenvalue problem...
 KGrids1:  -0.43750  -0.31250  -0.18750  -0.06250   0.06250   0.18750   0.31250   0.43750 
 KGrids2:  -0.46429  -0.39286  -0.32143  -0.25000  -0.17857  -0.10714  -0.03572   0.03571   0.10714   0.17857   0.25000   0.32143   0.39286   0.46428 
 KGrids3:   0.00000 
<Band_DFT>  Eigen, time=1.456420
<Band_DFT>  DM, time=0.000000
    1   Sn  MulP   7.0032  7.0032 sum  14.0065
    2   Sn  MulP   6.9996  6.9996 sum  13.9991
    3   Sn  MulP   7.0014  7.0014 sum  14.0028
    4   Sn  MulP   7.0000  7.0000 sum  14.0001
    5   Sn  MulP   7.0006  7.0006 sum  14.0012
    6   Sn  MulP   7.0011  7.0011 sum  14.0022
    7   Sn  MulP   7.0022  7.0022 sum  14.0044
    8   Sn  MulP   7.0003  7.0003 sum  14.0006
    9   Sn  MulP   7.0005  7.0005 sum  14.0009
   10   Sn  MulP   7.0015  7.0015 sum  14.0030
   11   Sn  MulP   7.0004  7.0004 sum  14.0007
   12   Sn  MulP   7.0010  7.0010 sum  14.0019
   13   Sn  MulP   7.0002  7.0002 sum  14.0004
   14   Sn  MulP   7.0012  7.0012 sum  14.0025
   15   Sn  MulP   7.0005  7.0005 sum  14.0010
   16   Sn  MulP   7.0008  7.0008 sum  14.0015
   17   Sn  MulP   6.9998  6.9998 sum  13.9996
   18   Sn  MulP   7.0008  7.0008 sum  14.0016
   19   Sn  MulP   7.0004  7.0004 sum  14.0008
   20   Sn  MulP   7.0005  7.0005 sum  14.0010
     ..........
     ......

 Sum of MulP: up   =   336.00000 down          =   336.00000
              total=   672.00000 ideal(neutral)=   672.00000
<DFT>  Total Spin Moment (muB) =  0.000000000000
<DFT>  Mixing_weight= 0.008298289978
<DFT>  Uele   = -503.675124256329  dUele     =   0.001377235845
<DFT>  NormRD =    0.018254118147  Criterion =   0.000000100000

******************* MD= 1  SCF=13 *******************
<Poisson>  Poisson's equation using FFT...
<Set_Hamiltonian>  Hamiltonian matrix for VNA+dVH+Vxc...
<Band>  Solving the eigenvalue problem...
 KGrids1:  -0.43750  -0.31250  -0.18750  -0.06250   0.06250   0.18750   0.31250   0.43750 
 KGrids2:  -0.46429  -0.39286  -0.32143  -0.25000  -0.17857  -0.10714  -0.03572   0.03571   0.10714   0.17857   0.25000   0.32143   0.39286   0.46428 
 KGrids3:   0.00000 
<Band_DFT>  Eigen, time=1.274104
<Band_DFT>  DM, time=0.000000
    1   Sn  MulP   7.0016  7.0016 sum  14.0031
    2   Sn  MulP   6.9982  6.9982 sum  13.9964
    3   Sn  MulP   6.9996  6.9996 sum  13.9992
    4   Sn  MulP   6.9987  6.9987 sum  13.9975
    5   Sn  MulP   6.9992  6.9992 sum  13.9985
    6   Sn  MulP   6.9999  6.9999 sum  13.9998
    7   Sn  MulP   7.0008  7.0008 sum  14.0016
    8   Sn  MulP   6.9991  6.9991 sum  13.9982
    9   Sn  MulP   6.9992  6.9992 sum  13.9984
   10   Sn  MulP   7.0003  7.0003 sum  14.0007
   11   Sn  MulP   6.9991  6.9991 sum  13.9982
   12   Sn  MulP   6.9998  6.9998 sum  13.9996
   13   Sn  MulP   6.9991  6.9991 sum  13.9982
   14   Sn  MulP   7.0004  7.0004 sum  14.0007
   15   Sn  MulP   6.9995  6.9995 sum  13.9989
   16   Sn  MulP   6.9999  6.9999 sum  13.9998
   17   Sn  MulP   6.9991  6.9991 sum  13.9982
   18   Sn  MulP   7.0002  7.0002 sum  14.0005
   19   Sn  MulP   6.9997  6.9997 sum  13.9994
   20   Sn  MulP   6.9999  6.9999 sum  13.9998
     ..........
     ......

 Sum of MulP: up   =   336.00000 down          =   336.00000
              total=   672.00000 ideal(neutral)=   672.00000
<DFT>  Total Spin Moment (muB) =  0.000000000000
<DFT>  Mixing_weight= 0.014730969034
<DFT>  Uele   = -503.674787472641  dUele     =   0.000336783688
<DFT>  NormRD =    0.012062605944  Criterion =   0.000000100000

******************* MD= 1  SCF=14 *******************
<Poisson>  Poisson's equation using FFT...
<Set_Hamiltonian>  Hamiltonian matrix for VNA+dVH+Vxc...
<Band>  Solving the eigenvalue problem...
 KGrids1:  -0.43750  -0.31250  -0.18750  -0.06250   0.06250   0.18750   0.31250   0.43750 
 KGrids2:  -0.46429  -0.39286  -0.32143  -0.25000  -0.17857  -0.10714  -0.03572   0.03571   0.10714   0.17857   0.25000   0.32143   0.39286   0.46428 
 KGrids3:   0.00000 
<Band_DFT>  Eigen, time=1.602307
<Band_DFT>  DM, time=0.000000
    1   Sn  MulP   7.0029  7.0029 sum  14.0058
    2   Sn  MulP   6.9993  6.9993 sum  13.9985
    3   Sn  MulP   7.0010  7.0010 sum  14.0019
    4   Sn  MulP   6.9997  6.9997 sum  13.9995
    5   Sn  MulP   7.0003  7.0003 sum  14.0006
    6   Sn  MulP   7.0008  7.0008 sum  14.0016
    7   Sn  MulP   7.0019  7.0019 sum  14.0037
    8   Sn  MulP   7.0000  7.0000 sum  14.0001
    9   Sn  MulP   7.0002  7.0002 sum  14.0003
   10   Sn  MulP   7.0012  7.0012 sum  14.0024
   11   Sn  MulP   7.0001  7.0001 sum  14.0001
   12   Sn  MulP   7.0007  7.0007 sum  14.0014
   13   Sn  MulP   6.9999  6.9999 sum  13.9998
   14   Sn  MulP   7.0010  7.0010 sum  14.0020
   15   Sn  MulP   7.0003  7.0003 sum  14.0005
   16   Sn  MulP   7.0005  7.0005 sum  14.0011
   17   Sn  MulP   6.9996  6.9996 sum  13.9993
   18   Sn  MulP   7.0007  7.0007 sum  14.0013
   19   Sn  MulP   7.0002  7.0002 sum  14.0004
   20   Sn  MulP   7.0003  7.0003 sum  14.0007
     ..........
     ......

 Sum of MulP: up   =   336.00000 down          =   336.00000
              total=   672.00000 ideal(neutral)=   672.00000
<DFT>  Total Spin Moment (muB) =  0.000000000000
<DFT>  Mixing_weight= 0.006243286211
<DFT>  Uele   = -503.675005360156  dUele     =   0.000217887515
<DFT>  NormRD =    0.014064655187  Criterion =   0.000000100000

******************* MD= 1  SCF=15 *******************
<Poisson>  Poisson's equation using FFT...
<Set_Hamiltonian>  Hamiltonian matrix for VNA+dVH+Vxc...
<Band>  Solving the eigenvalue problem...
 KGrids1:  -0.43750  -0.31250  -0.18750  -0.06250   0.06250   0.18750   0.31250   0.43750 
 KGrids2:  -0.46429  -0.39286  -0.32143  -0.25000  -0.17857  -0.10714  -0.03572   0.03571   0.10714   0.17857   0.25000   0.32143   0.39286   0.46428 
 KGrids3:   0.00000 
<Band_DFT>  Eigen, time=1.460944
<Band_DFT>  DM, time=0.000000
    1   Sn  MulP   7.0020  7.0020 sum  14.0041
    2   Sn  MulP   6.9986  6.9986 sum  13.9971
    3   Sn  MulP   7.0001  7.0001 sum  14.0001
    4   Sn  MulP   6.9991  6.9991 sum  13.9982
    5   Sn  MulP   6.9996  6.9996 sum  13.9992
    6   Sn  MulP   7.0002  7.0002 sum  14.0004
    7   Sn  MulP   7.0012  7.0012 sum  14.0024
    8   Sn  MulP   6.9994  6.9994 sum  13.9989
    9   Sn  MulP   6.9995  6.9995 sum  13.9991
   10   Sn  MulP   7.0006  7.0006 sum  14.0013
   11   Sn  MulP   6.9994  6.9994 sum  13.9989
   12   Sn  MulP   7.0001  7.0001 sum  14.0002
   13   Sn  MulP   6.9994  6.9994 sum  13.9988
   14   Sn  MulP   7.0006  7.0006 sum  14.0012
   15   Sn  MulP   6.9997  6.9997 sum  13.9995
   16   Sn  MulP   7.0001  7.0001 sum  14.0002
   17   Sn  MulP   6.9993  6.9993 sum  13.9986
   18   Sn  MulP   7.0004  7.0004 sum  14.0008
   19   Sn  MulP   6.9999  6.9999 sum  13.9997
   20   Sn  MulP   7.0001  7.0001 sum  14.0001
     ..........
     ......

 Sum of MulP: up   =   336.00000 down          =   336.00000
              total=   672.00000 ideal(neutral)=   672.00000
<DFT>  Total Spin Moment (muB) =  0.000000000000
<DFT>  Mixing_weight= 0.012569836590
<DFT>  Uele   = -503.675115409562  dUele     =   0.000110049405
<DFT>  NormRD =    0.009978097857  Criterion =   0.000000100000

******************* MD= 1  SCF=16 *******************
<Poisson>  Poisson's equation using FFT...
<Set_Hamiltonian>  Hamiltonian matrix for VNA+dVH+Vxc...
<Band>  Solving the eigenvalue problem...
 KGrids1:  -0.43750  -0.31250  -0.18750  -0.06250   0.06250   0.18750   0.31250   0.43750 
 KGrids2:  -0.46429  -0.39286  -0.32143  -0.25000  -0.17857  -0.10714  -0.03572   0.03571   0.10714   0.17857   0.25000   0.32143   0.39286   0.46428 
 KGrids3:   0.00000 
<Band_DFT>  Eigen, time=2.331537
<Band_DFT>  DM, time=0.000000
    1   Sn  MulP   7.0022  7.0022 sum  14.0043
    2   Sn  MulP   6.9987  6.9987 sum  13.9973
    3   Sn  MulP   7.0002  7.0002 sum  14.0004
    4   Sn  MulP   6.9992  6.9992 sum  13.9984
    5   Sn  MulP   6.9997  6.9997 sum  13.9994
    6   Sn  MulP   7.0003  7.0003 sum  14.0006
    7   Sn  MulP   7.0013  7.0013 sum  14.0026
    8   Sn  MulP   6.9995  6.9995 sum  13.9991
    9   Sn  MulP   6.9996  6.9996 sum  13.9993
   10   Sn  MulP   7.0007  7.0007 sum  14.0014
   11   Sn  MulP   6.9995  6.9995 sum  13.9991
   12   Sn  MulP   7.0002  7.0002 sum  14.0004
   13   Sn  MulP   6.9995  6.9995 sum  13.9990
   14   Sn  MulP   7.0007  7.0007 sum  14.0013
   15   Sn  MulP   6.9998  6.9998 sum  13.9996
   16   Sn  MulP   7.0002  7.0002 sum  14.0004
   17   Sn  MulP   6.9993  6.9993 sum  13.9987
   18   Sn  MulP   7.0004  7.0004 sum  14.0008
   19   Sn  MulP   6.9999  6.9999 sum  13.9998
   20   Sn  MulP   7.0001  7.0001 sum  14.0002
     ..........
     ......

 Sum of MulP: up   =   336.00000 down          =   336.00000
              total=   672.00000 ideal(neutral)=   672.00000
<DFT>  Total Spin Moment (muB) =  0.000000000000
<DFT>  Mixing_weight= 0.030000000000
<DFT>  Uele   = -503.675355093961  dUele     =   0.000239684400
<DFT>  NormRD =    0.009839955037  Criterion =   0.000000100000

******************* MD= 1  SCF=17 *******************
<Poisson>  Poisson's equation using FFT...
<Set_Hamiltonian>  Hamiltonian matrix for VNA+dVH+Vxc...
<Band>  Solving the eigenvalue problem...
 KGrids1:  -0.43750  -0.31250  -0.18750  -0.06250   0.06250   0.18750   0.31250   0.43750 
 KGrids2:  -0.46429  -0.39286  -0.32143  -0.25000  -0.17857  -0.10714  -0.03572   0.03571   0.10714   0.17857   0.25000   0.32143   0.39286   0.46428 
 KGrids3:   0.00000 
<Band_DFT>  Eigen, time=1.289856
<Band_DFT>  DM, time=0.000000
    1   Sn  MulP   7.0018  7.0018 sum  14.0037
    2   Sn  MulP   6.9984  6.9984 sum  13.9968
    3   Sn  MulP   6.9998  6.9998 sum  13.9996
    4   Sn  MulP   6.9989  6.9989 sum  13.9978
    5   Sn  MulP   6.9994  6.9994 sum  13.9989
    6   Sn  MulP   7.0000  7.0000 sum  14.0001
    7   Sn  MulP   7.0010  7.0010 sum  14.0020
    8   Sn  MulP   6.9993  6.9993 sum  13.9986
    9   Sn  MulP   6.9994  6.9994 sum  13.9988
   10   Sn  MulP   7.0005  7.0005 sum  14.0010
   11   Sn  MulP   6.9993  6.9993 sum  13.9986
   12   Sn  MulP   6.9999  6.9999 sum  13.9999
   13   Sn  MulP   6.9993  6.9993 sum  13.9985
   14   Sn  MulP   7.0005  7.0005 sum  14.0010
   15   Sn  MulP   6.9996  6.9996 sum  13.9992
   16   Sn  MulP   7.0000  7.0000 sum  14.0000
   17   Sn  MulP   6.9992  6.9992 sum  13.9984
   18   Sn  MulP   7.0003  7.0003 sum  14.0006
   19   Sn  MulP   6.9998  6.9998 sum  13.9996
   20   Sn  MulP   7.0000  7.0000 sum  13.9999
     ..........
     ......

 Sum of MulP: up   =   336.00000 down          =   336.00000
              total=   672.00000 ideal(neutral)=   672.00000
<DFT>  Total Spin Moment (muB) =  0.000000000000
<DFT>  Mixing_weight= 0.014627610949
<DFT>  Uele   = -503.675819619445  dUele     =   0.000464525484
<DFT>  NormRD =    0.010087350171  Criterion =   0.000000100000

******************* MD= 1  SCF=18 *******************
<Poisson>  Poisson's equation using FFT...
<Set_Hamiltonian>  Hamiltonian matrix for VNA+dVH+Vxc...
<Band>  Solving the eigenvalue problem...
 KGrids1:  -0.43750  -0.31250  -0.18750  -0.06250   0.06250   0.18750   0.31250   0.43750 
 KGrids2:  -0.46429  -0.39286  -0.32143  -0.25000  -0.17857  -0.10714  -0.03572   0.03571   0.10714   0.17857   0.25000   0.32143   0.39286   0.46428 
 KGrids3:   0.00000 
<Band_DFT>  Eigen, time=1.463720
<Band_DFT>  DM, time=0.000000
    1   Sn  MulP   7.0026  7.0026 sum  14.0051
    2   Sn  MulP   6.9990  6.9990 sum  13.9979
    3   Sn  MulP   7.0005  7.0005 sum  14.0010
    4   Sn  MulP   6.9995  6.9995 sum  13.9989
    5   Sn  MulP   7.0000  7.0000 sum  14.0000
    6   Sn  MulP   7.0005  7.0005 sum  14.0011
    7   Sn  MulP   7.0016  7.0016 sum  14.0032
    8   Sn  MulP   6.9998  6.9998 sum  13.9996
    9   Sn  MulP   6.9999  6.9999 sum  13.9998
   10   Sn  MulP   7.0010  7.0010 sum  14.0019
   11   Sn  MulP   6.9998  6.9998 sum  13.9996
   12   Sn  MulP   7.0004  7.0004 sum  14.0009
   13   Sn  MulP   6.9997  6.9997 sum  13.9994
   14   Sn  MulP   7.0008  7.0008 sum  14.0017
   15   Sn  MulP   7.0000  7.0000 sum  14.0001
   16   Sn  MulP   7.0004  7.0004 sum  14.0007
   17   Sn  MulP   6.9995  6.9995 sum  13.9990
   18   Sn  MulP   7.0005  7.0005 sum  14.0011
   19   Sn  MulP   7.0001  7.0001 sum  14.0002
   20   Sn  MulP   7.0002  7.0002 sum  14.0004
     ..........
     ......

 Sum of MulP: up   =   336.00000 down          =   336.00000
              total=   672.00000 ideal(neutral)=   672.00000
<DFT>  Total Spin Moment (muB) =  0.000000000000
<DFT>  Mixing_weight= 0.006876041672
<DFT>  Uele   = -503.676055688387  dUele     =   0.000236068942
<DFT>  NormRD =    0.010710325345  Criterion =   0.000000100000

******************* MD= 1  SCF=19 *******************
<Poisson>  Poisson's equation using FFT...
<Set_Hamiltonian>  Hamiltonian matrix for VNA+dVH+Vxc...
<Band>  Solving the eigenvalue problem...
 KGrids1:  -0.43750  -0.31250  -0.18750  -0.06250   0.06250   0.18750   0.31250   0.43750 
 KGrids2:  -0.46429  -0.39286  -0.32143  -0.25000  -0.17857  -0.10714  -0.03572   0.03571   0.10714   0.17857   0.25000   0.32143   0.39286   0.46428 
 KGrids3:   0.00000 
<Band_DFT>  Eigen, time=1.853443
<Band_DFT>  DM, time=0.000000
    1   Sn  MulP   7.0021  7.0021 sum  14.0041
    2   Sn  MulP   6.9986  6.9986 sum  13.9971
    3   Sn  MulP   7.0000  7.0000 sum  13.9999
    4   Sn  MulP   6.9991  6.9991 sum  13.9982
    5   Sn  MulP   6.9996  6.9996 sum  13.9992
    6   Sn  MulP   7.0002  7.0002 sum  14.0004
    7   Sn  MulP   7.0012  7.0012 sum  14.0024
    8   Sn  MulP   6.9994  6.9994 sum  13.9989
    9   Sn  MulP   6.9995  6.9995 sum  13.9990
   10   Sn  MulP   7.0006  7.0006 sum  14.0012
   11   Sn  MulP   6.9994  6.9994 sum  13.9989
   12   Sn  MulP   7.0001  7.0001 sum  14.0002
   13   Sn  MulP   6.9994  6.9994 sum  13.9988
   14   Sn  MulP   7.0006  7.0006 sum  14.0012
   15   Sn  MulP   6.9997  6.9997 sum  13.9995
   16   Sn  MulP   7.0001  7.0001 sum  14.0002
   17   Sn  MulP   6.9993  6.9993 sum  13.9986
   18   Sn  MulP   7.0004  7.0004 sum  14.0007
   19   Sn  MulP   6.9999  6.9999 sum  13.9997
   20   Sn  MulP   7.0000  7.0000 sum  14.0001
     ..........
     ......

 Sum of MulP: up   =   336.00000 down          =   336.00000
              total=   672.00000 ideal(neutral)=   672.00000
<DFT>  Total Spin Moment (muB) =  0.000000000000
<DFT>  Mixing_weight= 0.027421738432
<DFT>  Uele   = -503.676143851925  dUele     =   0.000088163537
<DFT>  NormRD =    0.009270765768  Criterion =   0.000000100000

******************* MD= 1  SCF=20 *******************
<Poisson>  Poisson's equation using FFT...
<Set_Hamiltonian>  Hamiltonian matrix for VNA+dVH+Vxc...
<Band>  Solving the eigenvalue problem...
 KGrids1:  -0.43750  -0.31250  -0.18750  -0.06250   0.06250   0.18750   0.31250   0.43750 
 KGrids2:  -0.46429  -0.39286  -0.32143  -0.25000  -0.17857  -0.10714  -0.03572   0.03571   0.10714   0.17857   0.25000   0.32143   0.39286   0.46428 
 KGrids3:   0.00000 
<Band_DFT>  Eigen, time=1.462659
<Band_DFT>  DM, time=0.000000
    1   Sn  MulP   7.0024  7.0024 sum  14.0049
    2   Sn  MulP   6.9989  6.9989 sum  13.9977
    3   Sn  MulP   7.0003  7.0003 sum  14.0006
    4   Sn  MulP   6.9994  6.9994 sum  13.9987
    5   Sn  MulP   6.9999  6.9999 sum  13.9998
    6   Sn  MulP   7.0004  7.0004 sum  14.0009
    7   Sn  MulP   7.0015  7.0015 sum  14.0029
    8   Sn  MulP   6.9997  6.9997 sum  13.9994
    9   Sn  MulP   6.9998  6.9998 sum  13.9996
   10   Sn  MulP   7.0009  7.0009 sum  14.0017
   11   Sn  MulP   6.9997  6.9997 sum  13.9995
   12   Sn  MulP   7.0003  7.0003 sum  14.0007
   13   Sn  MulP   6.9996  6.9996 sum  13.9993
   14   Sn  MulP   7.0008  7.0008 sum  14.0015
   15   Sn  MulP   7.0000  7.0000 sum  13.9999
   16   Sn  MulP   7.0003  7.0003 sum  14.0006
   17   Sn  MulP   6.9994  6.9994 sum  13.9989
   18   Sn  MulP   7.0005  7.0005 sum  14.0010
   19   Sn  MulP   7.0000  7.0000 sum  14.0000
   20   Sn  MulP   7.0001  7.0001 sum  14.0003
     ..........
     ......

 Sum of MulP: up   =   336.00000 down          =   336.00000
              total=   672.00000 ideal(neutral)=   672.00000
<DFT>  Total Spin Moment (muB) =  0.000000000000
<DFT>  Mixing_weight= 0.013193904521
<DFT>  Uele   = -503.676528417147  dUele     =   0.000384565222
<DFT>  NormRD =    0.009627163186  Criterion =   0.000000100000

******************* MD= 1  SCF=21 *******************
<Poisson>  Poisson's equation using FFT...
<Set_Hamiltonian>  Hamiltonian matrix for VNA+dVH+Vxc...
<Band>  Solving the eigenvalue problem...
 KGrids1:  -0.43750  -0.31250  -0.18750  -0.06250   0.06250   0.18750   0.31250   0.43750 
 KGrids2:  -0.46429  -0.39286  -0.32143  -0.25000  -0.17857  -0.10714  -0.03572   0.03571   0.10714   0.17857   0.25000   0.32143   0.39286   0.46428 
 KGrids3:   0.00000 
<Band_DFT>  Eigen, time=1.295201
<Band_DFT>  DM, time=0.000000
    1   Sn  MulP   7.0018  7.0018 sum  14.0036
    2   Sn  MulP   6.9983  6.9983 sum  13.9967
    3   Sn  MulP   6.9996  6.9996 sum  13.9992
    4   Sn  MulP   6.9989  6.9989 sum  13.9977
    5   Sn  MulP   6.9994  6.9994 sum  13.9988
    6   Sn  MulP   7.0000  7.0000 sum  13.9999
    7   Sn  MulP   7.0009  7.0009 sum  14.0019
    8   Sn  MulP   6.9992  6.9992 sum  13.9985
    9   Sn  MulP   6.9993  6.9993 sum  13.9986
   10   Sn  MulP   7.0004  7.0004 sum  14.0008
   11   Sn  MulP   6.9992  6.9992 sum  13.9985
   12   Sn  MulP   6.9999  6.9999 sum  13.9998
   13   Sn  MulP   6.9992  6.9992 sum  13.9984
   14   Sn  MulP   7.0004  7.0004 sum  14.0009
   15   Sn  MulP   6.9996  6.9996 sum  13.9991
   16   Sn  MulP   7.0000  7.0000 sum  13.9999
   17   Sn  MulP   6.9992  6.9992 sum  13.9983
   18   Sn  MulP   7.0003  7.0003 sum  14.0006
   19   Sn  MulP   6.9998  6.9998 sum  13.9995
   20   Sn  MulP   6.9999  6.9999 sum  13.9999
     ..........
     ......

 Sum of MulP: up   =   336.00000 down          =   336.00000
              total=   672.00000 ideal(neutral)=   672.00000
<DFT>  Total Spin Moment (muB) =  0.000000000000
<DFT>  Mixing_weight= 0.006405955711
<DFT>  Uele   = -503.676685023650  dUele     =   0.000156606503
<DFT>  NormRD =    0.009910045462  Criterion =   0.000000100000

******************* MD= 1  SCF=22 *******************
<Poisson>  Poisson's equation using FFT...
<Set_Hamiltonian>  Hamiltonian matrix for VNA+dVH+Vxc...
<Band>  Solving the eigenvalue problem...
 KGrids1:  -0.43750  -0.31250  -0.18750  -0.06250   0.06250   0.18750   0.31250   0.43750 
 KGrids2:  -0.46429  -0.39286  -0.32143  -0.25000  -0.17857  -0.10714  -0.03572   0.03571   0.10714   0.17857   0.25000   0.32143   0.39286   0.46428 
 KGrids3:   0.00000 
<Band_DFT>  Eigen, time=1.280208
<Band_DFT>  DM, time=0.000000
    1   Sn  MulP   7.0022  7.0022 sum  14.0044
    2   Sn  MulP   6.9987  6.9987 sum  13.9973
    3   Sn  MulP   7.0000  7.0000 sum  14.0001
    4   Sn  MulP   6.9992  6.9992 sum  13.9983
    5   Sn  MulP   6.9997  6.9997 sum  13.9995
    6   Sn  MulP   7.0002  7.0002 sum  14.0005
    7   Sn  MulP   7.0013  7.0013 sum  14.0025
    8   Sn  MulP   6.9995  6.9995 sum  13.9990
    9   Sn  MulP   6.9996  6.9996 sum  13.9992
   10   Sn  MulP   7.0007  7.0007 sum  14.0014
   11   Sn  MulP   6.9995  6.9995 sum  13.9991
   12   Sn  MulP   7.0002  7.0002 sum  14.0003
   13   Sn  MulP   6.9995  6.9995 sum  13.9989
   14   Sn  MulP   7.0006  7.0006 sum  14.0013
   15   Sn  MulP   6.9998  6.9998 sum  13.9996
   16   Sn  MulP   7.0002  7.0002 sum  14.0003
   17   Sn  MulP   6.9993  6.9993 sum  13.9987
   18   Sn  MulP   7.0004  7.0004 sum  14.0008
   19   Sn  MulP   6.9999  6.9999 sum  13.9998
   20   Sn  MulP   7.0001  7.0001 sum  14.0001
     ..........
     ......

 Sum of MulP: up   =   336.00000 down          =   336.00000
              total=   672.00000 ideal(neutral)=   672.00000
<DFT>  Total Spin Moment (muB) =  0.000000000000
<DFT>  Mixing_weight= 0.028712075989
<DFT>  Uele   = -503.676763769045  dUele     =   0.000078745396
<DFT>  NormRD =    0.008734848348  Criterion =   0.000000100000

******************* MD= 1  SCF=23 *******************
<Poisson>  Poisson's equation using FFT...
<Set_Hamiltonian>  Hamiltonian matrix for VNA+dVH+Vxc...
<Band>  Solving the eigenvalue problem...
 KGrids1:  -0.43750  -0.31250  -0.18750  -0.06250   0.06250   0.18750   0.31250   0.43750 
 KGrids2:  -0.46429  -0.39286  -0.32143  -0.25000  -0.17857  -0.10714  -0.03572   0.03571   0.10714   0.17857   0.25000   0.32143   0.39286   0.46428 
 KGrids3:   0.00000 
<Band_DFT>  Eigen, time=1.419014
<Band_DFT>  DM, time=0.000000
    1   Sn  MulP   7.0020  7.0020 sum  14.0040
    2   Sn  MulP   6.9985  6.9985 sum  13.9971
    3   Sn  MulP   6.9998  6.9998 sum  13.9996
    4   Sn  MulP   6.9990  6.9990 sum  13.9981
    5   Sn  MulP   6.9996  6.9996 sum  13.9992
    6   Sn  MulP   7.0001  7.0001 sum  14.0002
    7   Sn  MulP   7.0011  7.0011 sum  14.0023
    8   Sn  MulP   6.9994  6.9994 sum  13.9988
    9   Sn  MulP   6.9995  6.9995 sum  13.9989
   10   Sn  MulP   7.0006  7.0006 sum  14.0011
   11   Sn  MulP   6.9994  6.9994 sum  13.9988
   12   Sn  MulP   7.0000  7.0000 sum  14.0001
   13   Sn  MulP   6.9994  6.9994 sum  13.9987
   14   Sn  MulP   7.0005  7.0005 sum  14.0011
   15   Sn  MulP   6.9997  6.9997 sum  13.9994
   16   Sn  MulP   7.0001  7.0001 sum  14.0001
   17   Sn  MulP   6.9993  6.9993 sum  13.9985
   18   Sn  MulP   7.0003  7.0003 sum  14.0007
   19   Sn  MulP   6.9998  6.9998 sum  13.9997
   20   Sn  MulP   7.0000  7.0000 sum  14.0000
     ..........
     ......

 Sum of MulP: up   =   336.00000 down          =   336.00000
              total=   672.00000 ideal(neutral)=   672.00000
<DFT>  Total Spin Moment (muB) =  0.000000000000
<DFT>  Mixing_weight= 0.030000000000
<DFT>  Uele   = -503.677118535296  dUele     =   0.000354766250
<DFT>  NormRD =    0.008629680640  Criterion =   0.000000100000

******************* MD= 1  SCF=24 *******************
<Poisson>  Poisson's equation using FFT...
<Set_Hamiltonian>  Hamiltonian matrix for VNA+dVH+Vxc...
<Band>  Solving the eigenvalue problem...
 KGrids1:  -0.43750  -0.31250  -0.18750  -0.06250   0.06250   0.18750   0.31250   0.43750 
 KGrids2:  -0.46429  -0.39286  -0.32143  -0.25000  -0.17857  -0.10714  -0.03572   0.03571   0.10714   0.17857   0.25000   0.32143   0.39286   0.46428 
 KGrids3:   0.00000 
<Band_DFT>  Eigen, time=1.328152
<Band_DFT>  DM, time=0.000001
    1   Sn  MulP   7.0028  7.0028 sum  14.0056
    2   Sn  MulP   6.9992  6.9992 sum  13.9983
    3   Sn  MulP   7.0006  7.0006 sum  14.0011
    4   Sn  MulP   6.9996  6.9996 sum  13.9992
    5   Sn  MulP   7.0002  7.0002 sum  14.0004
    6   Sn  MulP   7.0006  7.0006 sum  14.0013
    7   Sn  MulP   7.0017  7.0017 sum  14.0035
    8   Sn  MulP   6.9999  6.9999 sum  13.9998
    9   Sn  MulP   7.0000  7.0000 sum  14.0000
   10   Sn  MulP   7.0011  7.0011 sum  14.0022
   11   Sn  MulP   7.0000  7.0000 sum  14.0000
   12   Sn  MulP   7.0005  7.0005 sum  14.0011
   13   Sn  MulP   6.9998  6.9998 sum  13.9997
   14   Sn  MulP   7.0009  7.0009 sum  14.0018
   15   Sn  MulP   7.0002  7.0002 sum  14.0003
   16   Sn  MulP   7.0004  7.0004 sum  14.0009
   17   Sn  MulP   6.9996  6.9996 sum  13.9991
   18   Sn  MulP   7.0006  7.0006 sum  14.0012
   19   Sn  MulP   7.0002  7.0002 sum  14.0003
   20   Sn  MulP   7.0002  7.0002 sum  14.0005
     ..........
     ......

 Sum of MulP: up   =   336.00000 down          =   336.00000
              total=   672.00000 ideal(neutral)=   672.00000
<DFT>  Total Spin Moment (muB) =  0.000000000000
<DFT>  Mixing_weight= 0.011226045902
<DFT>  Uele   = -503.677419693278  dUele     =   0.000301157982
<DFT>  NormRD =    0.011159871476  Criterion =   0.000000100000

******************* MD= 1  SCF=25 *******************
<Poisson>  Poisson's equation using FFT...
<Set_Hamiltonian>  Hamiltonian matrix for VNA+dVH+Vxc...
<Band>  Solving the eigenvalue problem...
 KGrids1:  -0.43750  -0.31250  -0.18750  -0.06250   0.06250   0.18750   0.31250   0.43750 
 KGrids2:  -0.46429  -0.39286  -0.32143  -0.25000  -0.17857  -0.10714  -0.03572   0.03571   0.10714   0.17857   0.25000   0.32143   0.39286   0.46428 
 KGrids3:   0.00000 
<Band_DFT>  Eigen, time=1.276971
<Band_DFT>  DM, time=0.000000
    1   Sn  MulP   7.0016  7.0016 sum  14.0032
    2   Sn  MulP   6.9982  6.9982 sum  13.9964
    3   Sn  MulP   6.9993  6.9993 sum  13.9987
    4   Sn  MulP   6.9987  6.9987 sum  13.9974
    5   Sn  MulP   6.9993  6.9993 sum  13.9985
    6   Sn  MulP   6.9998  6.9998 sum  13.9996
    7   Sn  MulP   7.0008  7.0008 sum  14.0016
    8   Sn  MulP   6.9991  6.9991 sum  13.9982
    9   Sn  MulP   6.9992  6.9992 sum  13.9983
   10   Sn  MulP   7.0003  7.0003 sum  14.0005
   11   Sn  MulP   6.9991  6.9991 sum  13.9982
   12   Sn  MulP   6.9998  6.9998 sum  13.9995
   13   Sn  MulP   6.9991  6.9991 sum  13.9982
   14   Sn  MulP   7.0003  7.0003 sum  14.0007
   15   Sn  MulP   6.9994  6.9994 sum  13.9989
   16   Sn  MulP   6.9999  6.9999 sum  13.9997
   17   Sn  MulP   6.9991  6.9991 sum  13.9982
   18   Sn  MulP   7.0002  7.0002 sum  14.0004
   19   Sn  MulP   6.9997  6.9997 sum  13.9994
   20   Sn  MulP   6.9998  6.9998 sum  13.9997
     ..........
     ......

 Sum of MulP: up   =   336.00000 down          =   336.00000
              total=   672.00000 ideal(neutral)=   672.00000
<DFT>  Total Spin Moment (muB) =  0.000000000000
<DFT>  Mixing_weight= 0.030000000000
<DFT>  Uele   = -503.677542215389  dUele     =   0.000122522111
<DFT>  NormRD =    0.010725592361  Criterion =   0.000000100000

******************* MD= 1  SCF=26 *******************
<Poisson>  Poisson's equation using FFT...
<Set_Hamiltonian>  Hamiltonian matrix for VNA+dVH+Vxc...
<Band>  Solving the eigenvalue problem...
 KGrids1:  -0.43750  -0.31250  -0.18750  -0.06250   0.06250   0.18750   0.31250   0.43750 
 KGrids2:  -0.46429  -0.39286  -0.32143  -0.25000  -0.17857  -0.10714  -0.03572   0.03571   0.10714   0.17857   0.25000   0.32143   0.39286   0.46428 
 KGrids3:   0.00000 
<Band_DFT>  Eigen, time=1.537741
<Band_DFT>  DM, time=0.000000
    1   Sn  MulP   7.0045  7.0045 sum  14.0091
    2   Sn  MulP   7.0006  7.0006 sum  14.0012
    3   Sn  MulP   7.0023  7.0023 sum  14.0047
    4   Sn  MulP   7.0010  7.0010 sum  14.0019
    5   Sn  MulP   7.0016  7.0016 sum  14.0032
    6   Sn  MulP   7.0018  7.0018 sum  14.0037
    7   Sn  MulP   7.0032  7.0032 sum  14.0063
    8   Sn  MulP   7.0011  7.0011 sum  14.0022
    9   Sn  MulP   7.0013  7.0013 sum  14.0026
   10   Sn  MulP   7.0023  7.0023 sum  14.0046
   11   Sn  MulP   7.0013  7.0013 sum  14.0026
   12   Sn  MulP   7.0017  7.0017 sum  14.0035
   13   Sn  MulP   7.0009  7.0009 sum  14.0018
   14   Sn  MulP   7.0018  7.0018 sum  14.0036
   15   Sn  MulP   7.0012  7.0012 sum  14.0025
   16   Sn  MulP   7.0013  7.0013 sum  14.0026
   17   Sn  MulP   7.0003  7.0003 sum  14.0006
   18   Sn  MulP   7.0012  7.0012 sum  14.0023
   19   Sn  MulP   7.0009  7.0009 sum  14.0018
   20   Sn  MulP   7.0008  7.0008 sum  14.0016
     ..........
     ......

 Sum of MulP: up   =   336.00000 down          =   336.00000
              total=   672.00000 ideal(neutral)=   672.00000
<DFT>  Total Spin Moment (muB) =  0.000000000000
<DFT>  Mixing_weight= 0.003293924968
<DFT>  Uele   = -503.677850034730  dUele     =   0.000307819341
<DFT>  NormRD =    0.030540030635  Criterion =   0.000000100000

******************* MD= 1  SCF=27 *******************
<Poisson>  Poisson's equation using FFT...
<Set_Hamiltonian>  Hamiltonian matrix for VNA+dVH+Vxc...
<Band>  Solving the eigenvalue problem...
 KGrids1:  -0.43750  -0.31250  -0.18750  -0.06250   0.06250   0.18750   0.31250   0.43750 
 KGrids2:  -0.46429  -0.39286  -0.32143  -0.25000  -0.17857  -0.10714  -0.03572   0.03571   0.10714   0.17857   0.25000   0.32143   0.39286   0.46428 
 KGrids3:   0.00000 
<Band_DFT>  Eigen, time=1.531491
<Band_DFT>  DM, time=0.000000
    1   Sn  MulP   7.0032  7.0032 sum  14.0065
    2   Sn  MulP   6.9995  6.9995 sum  13.9990
    3   Sn  MulP   7.0010  7.0010 sum  14.0019
    4   Sn  MulP   6.9999  6.9999 sum  13.9999
    5   Sn  MulP   7.0006  7.0006 sum  14.0011
    6   Sn  MulP   7.0009  7.0009 sum  14.0018
    7   Sn  MulP   7.0021  7.0021 sum  14.0042
    8   Sn  MulP   7.0002  7.0002 sum  14.0004
    9   Sn  MulP   7.0003  7.0003 sum  14.0006
   10   Sn  MulP   7.0014  7.0014 sum  14.0027
   11   Sn  MulP   7.0003  7.0003 sum  14.0006
   12   Sn  MulP   7.0008  7.0008 sum  14.0017
   13   Sn  MulP   7.0001  7.0001 sum  14.0002
   14   Sn  MulP   7.0011  7.0011 sum  14.0022
   15   Sn  MulP   7.0004  7.0004 sum  14.0009
   16   Sn  MulP   7.0006  7.0006 sum  14.0013
   17   Sn  MulP   6.9997  6.9997 sum  13.9995
   18   Sn  MulP   7.0007  7.0007 sum  14.0015
   19   Sn  MulP   7.0003  7.0003 sum  14.0007
   20   Sn  MulP   7.0004  7.0004 sum  14.0007
     ..........
     ......

 Sum of MulP: up   =   336.00000 down          =   336.00000
              total=   672.00000 ideal(neutral)=   672.00000
<DFT>  Total Spin Moment (muB) =  0.000000000000
<DFT>  Mixing_weight= 0.004335099884
<DFT>  Uele   = -503.677812970036  dUele     =   0.000037064694
<DFT>  NormRD =    0.014966896741  Criterion =   0.000000100000

******************* MD= 1  SCF=28 *******************
<Poisson>  Poisson's equation using FFT...
<Set_Hamiltonian>  Hamiltonian matrix for VNA+dVH+Vxc...
<Band>  Solving the eigenvalue problem...
 KGrids1:  -0.43750  -0.31250  -0.18750  -0.06250   0.06250   0.18750   0.31250   0.43750 
 KGrids2:  -0.46429  -0.39286  -0.32143  -0.25000  -0.17857  -0.10714  -0.03572   0.03571   0.10714   0.17857   0.25000   0.32143   0.39286   0.46428 
 KGrids3:   0.00000 
<Band_DFT>  Eigen, time=1.563267
<Band_DFT>  DM, time=0.000000
    1   Sn  MulP   7.0025  7.0025 sum  14.0049
    2   Sn  MulP   6.9989  6.9989 sum  13.9978
    3   Sn  MulP   7.0002  7.0002 sum  14.0003
    4   Sn  MulP   6.9993  6.9993 sum  13.9987
    5   Sn  MulP   6.9999  6.9999 sum  13.9999
    6   Sn  MulP   7.0004  7.0004 sum  14.0008
    7   Sn  MulP   7.0015  7.0015 sum  14.0029
    8   Sn  MulP   6.9997  6.9997 sum  13.9993
    9   Sn  MulP   6.9998  6.9998 sum  13.9995
   10   Sn  MulP   7.0008  7.0008 sum  14.0017
   11   Sn  MulP   6.9997  6.9997 sum  13.9995
   12   Sn  MulP   7.0003  7.0003 sum  14.0006
   13   Sn  MulP   6.9996  6.9996 sum  13.9992
   14   Sn  MulP   7.0007  7.0007 sum  14.0015
   15   Sn  MulP   7.0000  7.0000 sum  13.9999
   16   Sn  MulP   7.0003  7.0003 sum  14.0005
   17   Sn  MulP   6.9994  6.9994 sum  13.9988
   18   Sn  MulP   7.0005  7.0005 sum  14.0010
   19   Sn  MulP   7.0000  7.0000 sum  14.0000
   20   Sn  MulP   7.0001  7.0001 sum  14.0002
     ..........
     ......

 Sum of MulP: up   =   336.00000 down          =   336.00000
              total=   672.00000 ideal(neutral)=   672.00000
<DFT>  Total Spin Moment (muB) =  0.000000000000
<DFT>  Mixing_weight= 0.006297942085
<DFT>  Uele   = -503.677862216288  dUele     =   0.000049246252
<DFT>  NormRD =    0.008355551579  Criterion =   0.000000100000

******************* MD= 1  SCF=29 *******************
<Poisson>  Poisson's equation using FFT...
<Set_Hamiltonian>  Hamiltonian matrix for VNA+dVH+Vxc...
<Band>  Solving the eigenvalue problem...
 KGrids1:  -0.43750  -0.31250  -0.18750  -0.06250   0.06250   0.18750   0.31250   0.43750 
 KGrids2:  -0.46429  -0.39286  -0.32143  -0.25000  -0.17857  -0.10714  -0.03572   0.03571   0.10714   0.17857   0.25000   0.32143   0.39286   0.46428 
 KGrids3:   0.00000 
<Band_DFT>  Eigen, time=1.297029
<Band_DFT>  DM, time=0.000000
    1   Sn  MulP   7.0022  7.0022 sum  14.0044
    2   Sn  MulP   6.9986  6.9986 sum  13.9973
    3   Sn  MulP   6.9999  6.9999 sum  13.9997
    4   Sn  MulP   6.9991  6.9991 sum  13.9982
    5   Sn  MulP   6.9997  6.9997 sum  13.9994
    6   Sn  MulP   7.0002  7.0002 sum  14.0004
    7   Sn  MulP   7.0012  7.0012 sum  14.0025
    8   Sn  MulP   6.9995  6.9995 sum  13.9989
    9   Sn  MulP   6.9995  6.9995 sum  13.9991
   10   Sn  MulP   7.0006  7.0006 sum  14.0013
   11   Sn  MulP   6.9995  6.9995 sum  13.9991
   12   Sn  MulP   7.0001  7.0001 sum  14.0002
   13   Sn  MulP   6.9994  6.9994 sum  13.9989
   14   Sn  MulP   7.0006  7.0006 sum  14.0012
   15   Sn  MulP   6.9998  6.9998 sum  13.9996
   16   Sn  MulP   7.0001  7.0001 sum  14.0002
   17   Sn  MulP   6.9993  6.9993 sum  13.9986
   18   Sn  MulP   7.0004  7.0004 sum  14.0008
   19   Sn  MulP   6.9999  6.9999 sum  13.9998
   20   Sn  MulP   7.0000  7.0000 sum  14.0000
     ..........
     ......

 Sum of MulP: up   =   336.00000 down          =   336.00000
              total=   672.00000 ideal(neutral)=   672.00000
<DFT>  Total Spin Moment (muB) =  0.000000000000
<DFT>  Mixing_weight= 0.030000000000
<DFT>  Uele   = -503.677946919606  dUele     =   0.000084703318
<DFT>  NormRD =    0.007642176410  Criterion =   0.000000100000

******************* MD= 1  SCF=30 *******************
<Poisson>  Poisson's equation using FFT...
<Set_Hamiltonian>  Hamiltonian matrix for VNA+dVH+Vxc...
<Band>  Solving the eigenvalue problem...
 KGrids1:  -0.43750  -0.31250  -0.18750  -0.06250   0.06250   0.18750   0.31250   0.43750 
 KGrids2:  -0.46429  -0.39286  -0.32143  -0.25000  -0.17857  -0.10714  -0.03572   0.03571   0.10714   0.17857   0.25000   0.32143   0.39286   0.46428 
 KGrids3:   0.00000 
<Band_DFT>  Eigen, time=1.777002
<Band_DFT>  DM, time=0.000000
    1   Sn  MulP   7.0023  7.0023 sum  14.0046
    2   Sn  MulP   6.9987  6.9987 sum  13.9975
    3   Sn  MulP   7.0000  7.0000 sum  13.9999
    4   Sn  MulP   6.9992  6.9992 sum  13.9984
    5   Sn  MulP   6.9998  6.9998 sum  13.9996
    6   Sn  MulP   7.0002  7.0002 sum  14.0005
    7   Sn  MulP   7.0013  7.0013 sum  14.0027
    8   Sn  MulP   6.9995  6.9995 sum  13.9991
    9   Sn  MulP   6.9996  6.9996 sum  13.9993
   10   Sn  MulP   7.0007  7.0007 sum  14.0014
   11   Sn  MulP   6.9996  6.9996 sum  13.9992
   12   Sn  MulP   7.0002  7.0002 sum  14.0004
   13   Sn  MulP   6.9995  6.9995 sum  13.9990
   14   Sn  MulP   7.0007  7.0007 sum  14.0013
   15   Sn  MulP   6.9999  6.9999 sum  13.9997
   16   Sn  MulP   7.0002  7.0002 sum  14.0003
   17   Sn  MulP   6.9994  6.9994 sum  13.9987
   18   Sn  MulP   7.0004  7.0004 sum  14.0009
   19   Sn  MulP   7.0000  7.0000 sum  13.9999
   20   Sn  MulP   7.0001  7.0001 sum  14.0001
     ..........
     ......

 Sum of MulP: up   =   336.00000 down          =   336.00000
              total=   672.00000 ideal(neutral)=   672.00000
<DFT>  Total Spin Moment (muB) =  0.000000000000
<DFT>  Mixing_weight= 0.030000000000
<DFT>  Uele   = -503.678258808846  dUele     =   0.000311889241
<DFT>  NormRD =    0.007462547423  Criterion =   0.000000100000

******************* MD= 1  SCF=31 *******************
<Poisson>  Poisson's equation using FFT...
<Set_Hamiltonian>  Hamiltonian matrix for VNA+dVH+Vxc...
<Band>  Solving the eigenvalue problem...
 KGrids1:  -0.43750  -0.31250  -0.18750  -0.06250   0.06250   0.18750   0.31250   0.43750 
 KGrids2:  -0.46429  -0.39286  -0.32143  -0.25000  -0.17857  -0.10714  -0.03572   0.03571   0.10714   0.17857   0.25000   0.32143   0.39286   0.46428 
 KGrids3:   0.00000 
<Band_DFT>  Eigen, time=1.463899
<Band_DFT>  DM, time=0.000000
    1   Sn  MulP   7.0019  7.0019 sum  14.0037
    2   Sn  MulP   6.9984  6.9984 sum  13.9967
    3   Sn  MulP   6.9995  6.9995 sum  13.9989
    4   Sn  MulP   6.9988  6.9988 sum  13.9977
    5   Sn  MulP   6.9994  6.9994 sum  13.9989
    6   Sn  MulP   6.9999  6.9999 sum  13.9998
    7   Sn  MulP   7.0010  7.0010 sum  14.0019
    8   Sn  MulP   6.9992  6.9992 sum  13.9985
    9   Sn  MulP   6.9993  6.9993 sum  13.9986
   10   Sn  MulP   7.0004  7.0004 sum  14.0008
   11   Sn  MulP   6.9993  6.9993 sum  13.9986
   12   Sn  MulP   6.9999  6.9999 sum  13.9998
   13   Sn  MulP   6.9992  6.9992 sum  13.9985
   14   Sn  MulP   7.0004  7.0004 sum  14.0009
   15   Sn  MulP   6.9996  6.9996 sum  13.9991
   16   Sn  MulP   6.9999  6.9999 sum  13.9999
   17   Sn  MulP   6.9992  6.9992 sum  13.9983
   18   Sn  MulP   7.0003  7.0003 sum  14.0005
   19   Sn  MulP   6.9998  6.9998 sum  13.9995
   20   Sn  MulP   6.9999  6.9999 sum  13.9998
     ..........
     ......

 Sum of MulP: up   =   336.00000 down          =   336.00000
              total=   672.00000 ideal(neutral)=   672.00000
<DFT>  Total Spin Moment (muB) =  0.000000000000
<DFT>  Mixing_weight= 0.013002086964
<DFT>  Uele   = -503.678378456129  dUele     =   0.000119647283
<DFT>  NormRD =    0.008532540774  Criterion =   0.000000100000

******************* MD= 1  SCF=32 *******************
<Poisson>  Poisson's equation using FFT...
<Set_Hamiltonian>  Hamiltonian matrix for VNA+dVH+Vxc...
<Band>  Solving the eigenvalue problem...
 KGrids1:  -0.43750  -0.31250  -0.18750  -0.06250   0.06250   0.18750   0.31250   0.43750 
 KGrids2:  -0.46429  -0.39286  -0.32143  -0.25000  -0.17857  -0.10714  -0.03572   0.03571   0.10714   0.17857   0.25000   0.32143   0.39286   0.46428 
 KGrids3:   0.00000 
<Band_DFT>  Eigen, time=1.737961
<Band_DFT>  DM, time=0.000000
    1   Sn  MulP   7.0027  7.0027 sum  14.0054
    2   Sn  MulP   6.9991  6.9991 sum  13.9981
    3   Sn  MulP   7.0003  7.0003 sum  14.0006
    4   Sn  MulP   6.9995  6.9995 sum  13.9990
    5   Sn  MulP   7.0001  7.0001 sum  14.0002
    6   Sn  MulP   7.0005  7.0005 sum  14.0010
    7   Sn  MulP   7.0016  7.0016 sum  14.0033
    8   Sn  MulP   6.9998  6.9998 sum  13.9996
    9   Sn  MulP   6.9999  6.9999 sum  13.9998
   10   Sn  MulP   7.0010  7.0010 sum  14.0020
   11   Sn  MulP   6.9999  6.9999 sum  13.9998
   12   Sn  MulP   7.0004  7.0004 sum  14.0009
   13   Sn  MulP   6.9998  6.9998 sum  13.9995
   14   Sn  MulP   7.0008  7.0008 sum  14.0017
   15   Sn  MulP   7.0001  7.0001 sum  14.0002
   16   Sn  MulP   7.0004  7.0004 sum  14.0007
   17   Sn  MulP   6.9995  6.9995 sum  13.9990
   18   Sn  MulP   7.0005  7.0005 sum  14.0011
   19   Sn  MulP   7.0001  7.0001 sum  14.0002
   20   Sn  MulP   7.0002  7.0002 sum  14.0003
     ..........
     ......

 Sum of MulP: up   =   336.00000 down          =   336.00000
              total=   672.00000 ideal(neutral)=   672.00000
<DFT>  Total Spin Moment (muB) =  0.000000000000
<DFT>  Mixing_weight= 0.006077014594
<DFT>  Uele   = -503.678582666936  dUele     =   0.000204210807
<DFT>  NormRD =    0.009108469130  Criterion =   0.000000100000

******************* MD= 1  SCF=33 *******************
<Poisson>  Poisson's equation using FFT...
<Set_Hamiltonian>  Hamiltonian matrix for VNA+dVH+Vxc...
<Band>  Solving the eigenvalue problem...
 KGrids1:  -0.43750  -0.31250  -0.18750  -0.06250   0.06250   0.18750   0.31250   0.43750 
 KGrids2:  -0.46429  -0.39286  -0.32143  -0.25000  -0.17857  -0.10714  -0.03572   0.03571   0.10714   0.17857   0.25000   0.32143   0.39286   0.46428 
 KGrids3:   0.00000 
<Band_DFT>  Eigen, time=1.281945
<Band_DFT>  DM, time=0.000000
    1   Sn  MulP   7.0022  7.0022 sum  14.0044
    2   Sn  MulP   6.9987  6.9987 sum  13.9973
    3   Sn  MulP   6.9998  6.9998 sum  13.9996
    4   Sn  MulP   6.9991  6.9991 sum  13.9982
    5   Sn  MulP   6.9997  6.9997 sum  13.9995
    6   Sn  MulP   7.0002  7.0002 sum  14.0003
    7   Sn  MulP   7.0012  7.0012 sum  14.0025
    8   Sn  MulP   6.9995  6.9995 sum  13.9989
    9   Sn  MulP   6.9995  6.9995 sum  13.9991
   10   Sn  MulP   7.0006  7.0006 sum  14.0013
   11   Sn  MulP   6.9995  6.9995 sum  13.9991
   12   Sn  MulP   7.0001  7.0001 sum  14.0002
   13   Sn  MulP   6.9995  6.9995 sum  13.9989
   14   Sn  MulP   7.0006  7.0006 sum  14.0012
   15   Sn  MulP   6.9998  6.9998 sum  13.9996
   16   Sn  MulP   7.0001  7.0001 sum  14.0002
   17   Sn  MulP   6.9993  6.9993 sum  13.9986
   18   Sn  MulP   7.0004  7.0004 sum  14.0008
   19   Sn  MulP   6.9999  6.9999 sum  13.9998
   20   Sn  MulP   7.0000  7.0000 sum  14.0000
     ..........
     ......

 Sum of MulP: up   =   336.00000 down          =   336.00000
              total=   672.00000 ideal(neutral)=   672.00000
<DFT>  Total Spin Moment (muB) =  0.000000000000
<DFT>  Mixing_weight= 0.014711569540
<DFT>  Uele   = -503.678604361841  dUele     =   0.000021694905
<DFT>  NormRD =    0.006978078730  Criterion =   0.000000100000

******************* MD= 1  SCF=34 *******************
<Poisson>  Poisson's equation using FFT...
<Set_Hamiltonian>  Hamiltonian matrix for VNA+dVH+Vxc...
<Band>  Solving the eigenvalue problem...
 KGrids1:  -0.43750  -0.31250  -0.18750  -0.06250   0.06250   0.18750   0.31250   0.43750 
 KGrids2:  -0.46429  -0.39286  -0.32143  -0.25000  -0.17857  -0.10714  -0.03572   0.03571   0.10714   0.17857   0.25000   0.32143   0.39286   0.46428 
 KGrids3:   0.00000 
<Band_DFT>  Eigen, time=1.654882
<Band_DFT>  DM, time=0.000000
    1   Sn  MulP   7.0023  7.0023 sum  14.0045
    2   Sn  MulP   6.9987  6.9987 sum  13.9974
    3   Sn  MulP   6.9999  6.9999 sum  13.9997
    4   Sn  MulP   6.9992  6.9992 sum  13.9983
    5   Sn  MulP   6.9998  6.9998 sum  13.9995
    6   Sn  MulP   7.0002  7.0002 sum  14.0004
    7   Sn  MulP   7.0013  7.0013 sum  14.0026
    8   Sn  MulP   6.9995  6.9995 sum  13.9990
    9   Sn  MulP   6.9996  6.9996 sum  13.9992
   10   Sn  MulP   7.0007  7.0007 sum  14.0014
   11   Sn  MulP   6.9996  6.9996 sum  13.9992
   12   Sn  MulP   7.0002  7.0002 sum  14.0003
   13   Sn  MulP   6.9995  6.9995 sum  13.9990
[...]
   15   Sn  MulP   6.9999  6.9999 sum  13.9998
   16   Sn  MulP   7.0001  7.0001 sum  14.0001
   17   Sn  MulP   6.9994  6.9994 sum  13.9987
   18   Sn  MulP   7.0004  7.0004 sum  14.0009
   19   Sn  MulP   6.9999  6.9999 sum  13.9998
   20   Sn  MulP   6.9999  6.9999 sum  13.9999
     ..........
     ......

 Sum of MulP: up   =   336.00000 down          =   336.00000
              total=   672.00000 ideal(neutral)=   672.00000
<DFT>  Total Spin Moment (muB) =  0.000000000000
<DFT>  Mixing_weight= 0.003000000000
<DFT>  Uele   = -503.665679180038  dUele     =   0.000000280952
<DFT>  NormRD =    0.000000293239  Criterion =   0.000000100000

******************* MD= 8  SCF=59 *******************
<Poisson>  Poisson's equation using FFT...
<Set_Hamiltonian>  Hamiltonian matrix for VNA+dVH+Vxc...
<Band>  Solving the eigenvalue problem...
 KGrids1:  -0.43750  -0.31250  -0.18750  -0.06250   0.06250   0.18750   0.31250   0.43750 
 KGrids2:  -0.46429  -0.39286  -0.32143  -0.25000  -0.17857  -0.10714  -0.03572   0.03571   0.10714   0.17857   0.25000   0.32143   0.39286   0.46428 
 KGrids3:   0.00000 
<Band_DFT>  Eigen, time=1.818331
<Band_DFT>  DM, time=0.000000
    1   Sn  MulP   7.0022  7.0022 sum  14.0044
    2   Sn  MulP   6.9989  6.9989 sum  13.9979
    3   Sn  MulP   6.9997  6.9997 sum  13.9993
    4   Sn  MulP   6.9989  6.9989 sum  13.9977
    5   Sn  MulP   7.0000  7.0000 sum  14.0000
    6   Sn  MulP   7.0000  7.0000 sum  14.0001
    7   Sn  MulP   7.0012  7.0012 sum  14.0024
    8   Sn  MulP   6.9996  6.9996 sum  13.9992
    9   Sn  MulP   6.9995  6.9995 sum  13.9990
   10   Sn  MulP   7.0006  7.0006 sum  14.0011
   11   Sn  MulP   6.9997  6.9997 sum  13.9994
   12   Sn  MulP   7.0001  7.0001 sum  14.0003
   13   Sn  MulP   6.9995  6.9995 sum  13.9990
   14   Sn  MulP   7.0006  7.0006 sum  14.0012
   15   Sn  MulP   6.9999  6.9999 sum  13.9998
   16   Sn  MulP   7.0001  7.0001 sum  14.0001
   17   Sn  MulP   6.9994  6.9994 sum  13.9987
   18   Sn  MulP   7.0004  7.0004 sum  14.0009
   19   Sn  MulP   6.9999  6.9999 sum  13.9998
   20   Sn  MulP   6.9999  6.9999 sum  13.9999
     ..........
     ......

 Sum of MulP: up   =   336.00000 down          =   336.00000
              total=   672.00000 ideal(neutral)=   672.00000
<DFT>  Total Spin Moment (muB) =  0.000000000000
<DFT>  Mixing_weight= 0.003000000000
<DFT>  Uele   = -503.665682074911  dUele     =   0.000002894873
<DFT>  NormRD =    0.000001069290  Criterion =   0.000000100000

******************* MD= 8  SCF=60 *******************
<Poisson>  Poisson's equation using FFT...
<Set_Hamiltonian>  Hamiltonian matrix for VNA+dVH+Vxc...
<Band>  Solving the eigenvalue problem...
 KGrids1:  -0.43750  -0.31250  -0.18750  -0.06250   0.06250   0.18750   0.31250   0.43750 
 KGrids2:  -0.46429  -0.39286  -0.32143  -0.25000  -0.17857  -0.10714  -0.03572   0.03571   0.10714   0.17857   0.25000   0.32143   0.39286   0.46428 
 KGrids3:   0.00000 
<Band_DFT>  Eigen, time=1.267563
<Band_DFT>  DM, time=0.000000
    1   Sn  MulP   7.0022  7.0022 sum  14.0044
    2   Sn  MulP   6.9989  6.9989 sum  13.9979
    3   Sn  MulP   6.9997  6.9997 sum  13.9993
    4   Sn  MulP   6.9989  6.9989 sum  13.9977
    5   Sn  MulP   7.0000  7.0000 sum  14.0000
    6   Sn  MulP   7.0000  7.0000 sum  14.0001
    7   Sn  MulP   7.0012  7.0012 sum  14.0024
    8   Sn  MulP   6.9996  6.9996 sum  13.9992
    9   Sn  MulP   6.9995  6.9995 sum  13.9990
   10   Sn  MulP   7.0006  7.0006 sum  14.0011
   11   Sn  MulP   6.9997  6.9997 sum  13.9994
   12   Sn  MulP   7.0001  7.0001 sum  14.0003
   13   Sn  MulP   6.9995  6.9995 sum  13.9990
   14   Sn  MulP   7.0006  7.0006 sum  14.0012
   15   Sn  MulP   6.9999  6.9999 sum  13.9998
   16   Sn  MulP   7.0001  7.0001 sum  14.0001
   17   Sn  MulP   6.9994  6.9994 sum  13.9987
   18   Sn  MulP   7.0004  7.0004 sum  14.0009
   19   Sn  MulP   6.9999  6.9999 sum  13.9998
   20   Sn  MulP   6.9999  6.9999 sum  13.9999
     ..........
     ......

 Sum of MulP: up   =   336.00000 down          =   336.00000
              total=   672.00000 ideal(neutral)=   672.00000
<DFT>  Total Spin Moment (muB) =  0.000000000000
<DFT>  Mixing_weight= 0.003000000000
<DFT>  Uele   = -503.665682465763  dUele     =   0.000000390851
<DFT>  NormRD =    0.000001036879  Criterion =   0.000000100000

******************* MD= 8  SCF=61 *******************
<Poisson>  Poisson's equation using FFT...
<Set_Hamiltonian>  Hamiltonian matrix for VNA+dVH+Vxc...
<Band>  Solving the eigenvalue problem...
 KGrids1:  -0.43750  -0.31250  -0.18750  -0.06250   0.06250   0.18750   0.31250   0.43750 
 KGrids2:  -0.46429  -0.39286  -0.32143  -0.25000  -0.17857  -0.10714  -0.03572   0.03571   0.10714   0.17857   0.25000   0.32143   0.39286   0.46428 
 KGrids3:   0.00000 
<Band_DFT>  Eigen, time=1.591112
<Band_DFT>  DM, time=0.000000
    1   Sn  MulP   7.0022  7.0022 sum  14.0044
    2   Sn  MulP   6.9989  6.9989 sum  13.9979
    3   Sn  MulP   6.9997  6.9997 sum  13.9993
    4   Sn  MulP   6.9989  6.9989 sum  13.9977
    5   Sn  MulP   7.0000  7.0000 sum  14.0000
    6   Sn  MulP   7.0000  7.0000 sum  14.0001
    7   Sn  MulP   7.0012  7.0012 sum  14.0024
    8   Sn  MulP   6.9996  6.9996 sum  13.9992
    9   Sn  MulP   6.9995  6.9995 sum  13.9990
   10   Sn  MulP   7.0006  7.0006 sum  14.0011
   11   Sn  MulP   6.9997  6.9997 sum  13.9994
   12   Sn  MulP   7.0001  7.0001 sum  14.0003
   13   Sn  MulP   6.9995  6.9995 sum  13.9990
   14   Sn  MulP   7.0006  7.0006 sum  14.0012
   15   Sn  MulP   6.9999  6.9999 sum  13.9998
   16   Sn  MulP   7.0001  7.0001 sum  14.0001
   17   Sn  MulP   6.9994  6.9994 sum  13.9987
   18   Sn  MulP   7.0004  7.0004 sum  14.0009
   19   Sn  MulP   6.9999  6.9999 sum  13.9998
   20   Sn  MulP   6.9999  6.9999 sum  13.9999
     ..........
     ......

 Sum of MulP: up   =   336.00000 down          =   336.00000
              total=   672.00000 ideal(neutral)=   672.00000
<DFT>  Total Spin Moment (muB) =  0.000000000000
<DFT>  Mixing_weight= 0.003000000000
<DFT>  Uele   = -503.665681102440  dUele     =   0.000001363323
<DFT>  NormRD =    0.000000690687  Criterion =   0.000000100000

******************* MD= 8  SCF=62 *******************
<Poisson>  Poisson's equation using FFT...
<Set_Hamiltonian>  Hamiltonian matrix for VNA+dVH+Vxc...
<Band>  Solving the eigenvalue problem...
 KGrids1:  -0.43750  -0.31250  -0.18750  -0.06250   0.06250   0.18750   0.31250   0.43750 
 KGrids2:  -0.46429  -0.39286  -0.32143  -0.25000  -0.17857  -0.10714  -0.03572   0.03571   0.10714   0.17857   0.25000   0.32143   0.39286   0.46428 
 KGrids3:   0.00000 
<Band_DFT>  Eigen, time=1.346371
<Band_DFT>  DM, time=0.000001
    1   Sn  MulP   7.0022  7.0022 sum  14.0044
    2   Sn  MulP   6.9989  6.9989 sum  13.9979
    3   Sn  MulP   6.9997  6.9997 sum  13.9993
    4   Sn  MulP   6.9989  6.9989 sum  13.9977
    5   Sn  MulP   7.0000  7.0000 sum  14.0000
    6   Sn  MulP   7.0000  7.0000 sum  14.0001
    7   Sn  MulP   7.0012  7.0012 sum  14.0024
    8   Sn  MulP   6.9996  6.9996 sum  13.9992
    9   Sn  MulP   6.9995  6.9995 sum  13.9990
   10   Sn  MulP   7.0006  7.0006 sum  14.0011
   11   Sn  MulP   6.9997  6.9997 sum  13.9994
   12   Sn  MulP   7.0001  7.0001 sum  14.0003
   13   Sn  MulP   6.9995  6.9995 sum  13.9990
   14   Sn  MulP   7.0006  7.0006 sum  14.0012
   15   Sn  MulP   6.9999  6.9999 sum  13.9998
   16   Sn  MulP   7.0001  7.0001 sum  14.0001
   17   Sn  MulP   6.9994  6.9994 sum  13.9987
   18   Sn  MulP   7.0004  7.0004 sum  14.0009
   19   Sn  MulP   6.9999  6.9999 sum  13.9998
   20   Sn  MulP   6.9999  6.9999 sum  13.9999
     ..........
     ......

 Sum of MulP: up   =   336.00000 down          =   336.00000
              total=   672.00000 ideal(neutral)=   672.00000
<DFT>  Total Spin Moment (muB) =  0.000000000000
<DFT>  Mixing_weight= 0.003000000000
<DFT>  Uele   = -503.665679713436  dUele     =   0.000001389004
<DFT>  NormRD =    0.000000095304  Criterion =   0.000000100000

******************* MD= 8  SCF=63 *******************
<Poisson>  Poisson's equation using FFT...
<Set_Hamiltonian>  Hamiltonian matrix for VNA+dVH+Vxc...
<Band>  Solving the eigenvalue problem...
 KGrids1:  -0.43750  -0.31250  -0.18750  -0.06250   0.06250   0.18750   0.31250   0.43750 
 KGrids2:  -0.46429  -0.39286  -0.32143  -0.25000  -0.17857  -0.10714  -0.03572   0.03571   0.10714   0.17857   0.25000   0.32143   0.39286   0.46428 
 KGrids3:   0.00000 
<Band_DFT>  Eigen, time=1.589867
<Band_DFT>  DM, time=0.000000
    1   Sn  MulP   7.0022  7.0022 sum  14.0044
    2   Sn  MulP   6.9989  6.9989 sum  13.9979
    3   Sn  MulP   6.9997  6.9997 sum  13.9993
    4   Sn  MulP   6.9989  6.9989 sum  13.9977
    5   Sn  MulP   7.0000  7.0000 sum  14.0000
    6   Sn  MulP   7.0000  7.0000 sum  14.0001
    7   Sn  MulP   7.0012  7.0012 sum  14.0024
    8   Sn  MulP   6.9996  6.9996 sum  13.9992
    9   Sn  MulP   6.9995  6.9995 sum  13.9990
   10   Sn  MulP   7.0006  7.0006 sum  14.0011
   11   Sn  MulP   6.9997  6.9997 sum  13.9994
   12   Sn  MulP   7.0001  7.0001 sum  14.0003
   13   Sn  MulP   6.9995  6.9995 sum  13.9990
   14   Sn  MulP   7.0006  7.0006 sum  14.0012
   15   Sn  MulP   6.9999  6.9999 sum  13.9998
   16   Sn  MulP   7.0001  7.0001 sum  14.0001
   17   Sn  MulP   6.9994  6.9994 sum  13.9987
   18   Sn  MulP   7.0004  7.0004 sum  14.0009
   19   Sn  MulP   6.9999  6.9999 sum  13.9998
   20   Sn  MulP   6.9999  6.9999 sum  13.9999
     ..........
     ......

 Sum of MulP: up   =   336.00000 down          =   336.00000
              total=   672.00000 ideal(neutral)=   672.00000
<DFT>  Total Spin Moment (muB) =  0.000000000000
<DFT>  Mixing_weight= 0.003000000000
<DFT>  Uele   = -503.665679724786  dUele     =   0.000000011350
<DFT>  NormRD =    0.000000057434  Criterion =   0.000000100000
<MD= 8>  Force calculation
  Force calculation #1
  Force calculation #2
  Force calculation #3
  Force calculation #4
  Force calculation #5
<MD= 8>  Total Energy
  Force calculation #6
  Force calculation #7

*******************************************************
                  Dipole moment (Debye)                 
*******************************************************

 Absolute D        0.18267149

                      Dx                Dy                Dz
 Total             -0.17624587       -0.02558558       -0.04064045
 Core            4817.43291215     3895.05709359   159216.98755142
 Electron       -4817.60915801    -3895.08267917  -159217.02819187
 Back ground       -0.00000000       -0.00000000       -0.00000000

*******************************************************
                Total Energy (Hartree) at MD = 8        
*******************************************************

  Uele  =    -503.665679724786

  Ukin  =    2441.168251384518
  UH0   =  -31386.576398769736
  UH1   =       0.060183280253
  Una   =   -1792.901018602342
  Unl   =    -574.966118672543
  Uxc0  =    -302.806416672318
  Uxc1  =    -302.806416672318
  Ucore =   28508.978415683108
  Uhub  =       0.000000000000
  Ucs   =       0.000000000000
  Uzs   =       0.000000000000
  Uzo   =       0.000000000000
  Uef   =       0.000000000000
  UvdW  =       0.000000000000
  Uch   =       0.000000000000
  Utot  =   -3409.849519041379

  UpV   =       0.000000000000
  Enpy  =   -3409.849519041379
  Note:

  Uele:   band energy
  Ukin:   kinetic energy
  UH0:    electric part of screened Coulomb energy
  UH1:    difference electron-electron Coulomb energy
  Una:    neutral atom potential energy
  Unl:    non-local potential energy
  Uxc0:   exchange-correlation energy for alpha spin
  Uxc1:   exchange-correlation energy for beta spin
  Ucore:  core-core Coulomb energy
  Uhub:   LDA+U energy
  Ucs:    constraint energy for spin orientation
  Uzs:    Zeeman term for spin magnetic moment
  Uzo:    Zeeman term for orbital magnetic moment
  Uef:    electric energy by electric field
  UvdW:   semi-empirical vdW energy 
  Uch:    penalty term to create a core hole
  UpV:    pressure times volume
  Enpy:   Enthalpy = Utot + UpV
  (see also PRB 72, 045121(2005) for the energy contributions)


*******************************************************
           Computational times (s) at MD = 8            
*******************************************************

  DFT in total      =  128.35955

  Set_OLP_Kin       =    0.83790
  Set_Nonlocal      =    1.22845
  Set_ProExpn_VNA   =    3.71328
  Set_Hamiltonian   =   20.47350
  Poisson           =    0.04685
  diagonalization   =   90.25683
  Mixing_DM         =    0.35897
  Force             =    2.76517
  Total_Energy      =    0.46588
  Set_Aden_Grid     =    0.10186
  Set_Orbitals_Grid =    0.12879
  Set_Density_Grid  =    7.19300
  RestartFileDFT    =    0.35250
  Mulliken_Charge   =    0.04069
  FFT(2D)_Density   =    0.06178

The SCF was achieved at MD=   8

*******************************************************
             MD or geometry opt. at MD = 8              
*******************************************************


The geometry optimization was achieved.
<BFGS>  |Maximum force| (Hartree/Bohr) = 0.000263975714
<BFGS>  Criterion       (Hartree/Bohr) = 0.000300000000

     atom=   1, XYZ(ang) Fxyz(a.u.)=  -0.0000    0.0149   15.0334    -0.0000   -0.0000    0.0000
     atom=   2, XYZ(ang) Fxyz(a.u.)=   2.9850    1.5645   17.9279    -0.0000    0.0001    0.0001
     atom=   3, XYZ(ang) Fxyz(a.u.)=   2.9850    0.8551   14.9809     0.0000    0.0002    0.0000
     atom=   4, XYZ(ang) Fxyz(a.u.)=  -0.0000    2.3995   17.9526     0.0000   -0.0002   -0.0001
     atom=   5, XYZ(ang) Fxyz(a.u.)=   0.0001    0.0103   20.9602    -0.0000    0.0002    0.0000
     atom=   6, XYZ(ang) Fxyz(a.u.)=   2.9850    1.5665   23.9170    -0.0000    0.0001    0.0001
     atom=   7, XYZ(ang) Fxyz(a.u.)=   2.9850    0.8381   20.9509    -0.0000   -0.0000    0.0000
     atom=   8, XYZ(ang) Fxyz(a.u.)=  -0.0000    2.4041   23.9194     0.0000   -0.0000    0.0002
     atom=   9, XYZ(ang) Fxyz(a.u.)=   0.0000    0.0094   26.9339    -0.0000   -0.0001   -0.0001
     atom=  10, XYZ(ang) Fxyz(a.u.)=   2.9850    1.5695   29.9093    -0.0000    0.0000    0.0002
     atom=  11, XYZ(ang) Fxyz(a.u.)=   2.9850    0.8454   26.9298     0.0000    0.0002    0.0001
     atom=  12, XYZ(ang) Fxyz(a.u.)=   0.0000    2.4050   29.9072    -0.0000   -0.0000    0.0000
     atom=  13, XYZ(ang) Fxyz(a.u.)=  -0.0000    0.0110   32.9168     0.0000   -0.0000   -0.0001
     atom=  14, XYZ(ang) Fxyz(a.u.)=   2.9850    1.5717   35.8955    -0.0000    0.0000    0.0000
     atom=  15, XYZ(ang) Fxyz(a.u.)=   2.9850    0.8423   32.9148    -0.0000   -0.0000    0.0001
     atom=  16, XYZ(ang) Fxyz(a.u.)=  -0.0000    2.3990   35.8924    -0.0000   -0.0001    0.0000
     atom=  17, XYZ(ang) Fxyz(a.u.)=   0.0000    0.0122   38.8880     0.0000    0.0001    0.0002
     atom=  18, XYZ(ang) Fxyz(a.u.)=   2.9850    1.5783   41.8672     0.0000   -0.0001    0.0001
     atom=  19, XYZ(ang) Fxyz(a.u.)=   2.9850    0.8441   38.8919     0.0000   -0.0000   -0.0001
     atom=  20, XYZ(ang) Fxyz(a.u.)=  -0.0000    2.4039   41.8628    -0.0000   -0.0000   -0.0000
     atom=  21, XYZ(ang) Fxyz(a.u.)=  -0.0000    0.0135   44.8413    -0.0000   -0.0001   -0.0000
     atom=  22, XYZ(ang) Fxyz(a.u.)=   2.9850    1.5686   47.8376    -0.0000   -0.0001    0.0000
     atom=  23, XYZ(ang) Fxyz(a.u.)=   2.9850    0.8445   44.8450     0.0000    0.0000   -0.0001
     atom=  24, XYZ(ang) Fxyz(a.u.)=   0.0000    2.4021   47.8383     0.0000    0.0000   -0.0000
     atom=  25, XYZ(ang) Fxyz(a.u.)=   0.0000    0.0115   50.8172    -0.0000   -0.0001   -0.0000
     atom=  26, XYZ(ang) Fxyz(a.u.)=   2.9850    1.5691   53.8097     0.0000   -0.0000    0.0001
     atom=  27, XYZ(ang) Fxyz(a.u.)=   2.9850    0.8445   50.8160     0.0000    0.0001    0.0001
     atom=  28, XYZ(ang) Fxyz(a.u.)=  -0.0000    2.4000   53.8137    -0.0000    0.0001    0.0000
     atom=  29, XYZ(ang) Fxyz(a.u.)=  -0.0000    0.0096   56.7922    -0.0000    0.0000    0.0000
     atom=  30, XYZ(ang) Fxyz(a.u.)=   2.9850    1.5694   59.7631     0.0000    0.0000    0.0001
     atom=  31, XYZ(ang) Fxyz(a.u.)=   2.9850    0.8352   56.7878    -0.0000    0.0001   -0.0001
     atom=  32, XYZ(ang) Fxyz(a.u.)=   0.0000    2.4013   59.7670     0.0000   -0.0001   -0.0002
     atom=  33, XYZ(ang) Fxyz(a.u.)=   0.0000    0.0145   62.7625    -0.0000    0.0001   -0.0000
     atom=  34, XYZ(ang) Fxyz(a.u.)=   2.9850    1.5712   65.7401     0.0000    0.0000   -0.0001
     atom=  35, XYZ(ang) Fxyz(a.u.)=   2.9850    0.8418   62.7595     0.0000   -0.0000   -0.0000
     atom=  36, XYZ(ang) Fxyz(a.u.)=   0.0000    2.4025   65.7382    -0.0000    0.0000    0.0001
     atom=  37, XYZ(ang) Fxyz(a.u.)=  -0.0000    0.0085   68.7478     0.0000    0.0000   -0.0000
     atom=  38, XYZ(ang) Fxyz(a.u.)=   2.9850    1.5681   71.7252    -0.0000   -0.0002   -0.0001
     atom=  39, XYZ(ang) Fxyz(a.u.)=   2.9850    0.8440   68.7454     0.0000   -0.0001   -0.0003
     atom=  40, XYZ(ang) Fxyz(a.u.)=  -0.0000    2.4041   71.7211     0.0000    0.0001    0.0001
     atom=  41, XYZ(ang) Fxyz(a.u.)=   0.0000    0.0093   74.7357    -0.0000    0.0000   -0.0002
     atom=  42, XYZ(ang) Fxyz(a.u.)=   2.9850    1.5754   77.7040    -0.0000    0.0000   -0.0000
     atom=  43, XYZ(ang) Fxyz(a.u.)=   2.9850    0.8470   74.7380    -0.0000   -0.0001   -0.0001
     atom=  44, XYZ(ang) Fxyz(a.u.)=   0.0000    2.4034   77.6949    -0.0000   -0.0001    0.0000
     atom=  45, XYZ(ang) Fxyz(a.u.)=   0.0000    0.0138   80.7026    -0.0000    0.0002    0.0001
     atom=  46, XYZ(ang) Fxyz(a.u.)=   2.9850    1.5585   83.6740    -0.0000   -0.0002   -0.0001
     atom=  47, XYZ(ang) Fxyz(a.u.)=   2.9850    0.8489   80.7270    -0.0000   -0.0001   -0.0001
     atom=  48, XYZ(ang) Fxyz(a.u.)=  -0.0000    2.3984   83.6215    -0.0000   -0.0001   -0.0001

outputting data on grids to files...


***********************************************************
***********************************************************
               Computational Time (second)                 
***********************************************************
***********************************************************

                               Min_ID   Min_Time       Max_ID   Max_Time
   Total Computational Time =    32     3431.331          0     3431.357
   readfile                 =   112        2.633         60        2.659
   truncation               =    49        2.657         21        3.180
   MD_pac                   =     0        0.421         18        0.465
   OutData                  =    32        0.000          0        0.014
   DFT                      =    21     3424.498         49     3425.016

*** In DFT ***

   Set_OLP_Kin              =   120        0.226          7        6.653
   Set_Nonlocal             =     7        9.701        120       16.132
   Set_ProExpn_VNA          =    51       10.790          6       30.045
   Set_Hamiltonian          =     9      554.364         15      554.472
   Poisson                  =    85        1.340         80        1.347
   Diagonalization          =     0     2572.408        120     2572.532
   Mixing_DM                =   120       10.815         80       10.817
   Force                    =   126       22.903         21       22.903
   Total_Energy             =    38        3.736         36        3.762
   Set_Aden_Grid            =     6        0.621         48       19.892
   Set_Orbitals_Grid        =    49        0.000         21        1.246
   Set_Density_Grid         =    41      196.473        125      198.422
   RestartFileDFT           =    62        2.396         52        3.935
   Mulliken_Charge          =   114        0.833        106        0.834
   FFT(2D)_Density          =    32        2.519         30        2.521
   Others                   =    20        6.441         54        9.556

The calculation was normally finished.

################################
##        Job Finished        ##
################################
