Loading intel/2025.3
  Loading requirement: advisor/2025.4 ccl/2022.0.0 tbb/2022.3
    compiler-rt/2025.3.2 umf/1.0.2 compiler/2025.3.2 debugger/2025.3.1
    dev-utilities/2025.3.0 dnnl/3.9.1 dpct/2025.3.0 dpl/2022.10
    intel_ipp_intel64/2022.3 intel_ippcp_intel64/2025.3 ishmem/1.5.0 mkl/2025.3
    mpi/2021.17 vtune/2025.8

################################
##      Job Information       ##
################################
Job ID: 242654.pbs
Job Name: jobA.sh
Queue: A_S
Work Directory: <WORK_DIR>/bulk_dft_SP


The number of threads in each node for OpenMP parallelization is 2.


*******************************************************
*******************************************************
 Welcome to OpenMX   Ver. 3.9.9                           
 Copyright (C), 2002-2019, T. Ozaki                    
 OpenMX comes with ABSOLUTELY NO WARRANTY.             
 This is free software, and you are welcome to         
 redistribute it under the constitution of the GNU-GPL.
*******************************************************
*******************************************************



<Input_std>  Your input file was normally read.
<Input_std>  The system includes 1 species and 4 atoms.

*******************************************************
                     PAO and VPS                       
*******************************************************

<SetPara_DFT>  PAOs of species Sn were normally found.
<SetPara_DFT>  VPSs of species Sn were normally found.
               Sn_PBE19.vps is j-dependent.
               In case of scf.SpinOrbit.Coupling=off,
               j-dependent pseudo potentials are averaged by j-degeneracy,
               which corresponds to a scalar relativistic treatment.

*******************************************************
     Fourier transform of PAO and projectors of VNL    
*******************************************************

<FT_PAO>          Fourier transform of pseudo atomic orbitals
<FT_NLP>          Fourier transform of non-local projectors
<FT_ProExpn_VNA>  Fourier transform of VNA separable projectors
<FT_VNA>          Fourier transform of VNA potentials
<FT_ProductPAO>   Fourier transform of product of PAOs

*******************************************************
  Allocation of atoms to processors at MD_iter=    1     
*******************************************************

 proc =   0  # of atoms=   1  estimated weight=         1.00000
 proc =   1  # of atoms=   1  estimated weight=         1.00000
 proc =   2  # of atoms=   1  estimated weight=         1.00000
 proc =   3  # of atoms=   1  estimated weight=         1.00000
 proc =   4  # of atoms=   0  estimated weight=         0.00000
 proc =   5  # of atoms=   0  estimated weight=         0.00000
 proc =   6  # of atoms=   0  estimated weight=         0.00000
 proc =   7  # of atoms=   0  estimated weight=         0.00000
 proc =   8  # of atoms=   0  estimated weight=         0.00000
 proc =   9  # of atoms=   0  estimated weight=         0.00000
 proc =  10  # of atoms=   0  estimated weight=         0.00000
 proc =  11  # of atoms=   0  estimated weight=         0.00000
 proc =  12  # of atoms=   0  estimated weight=         0.00000
 proc =  13  # of atoms=   0  estimated weight=         0.00000
 proc =  14  # of atoms=   0  estimated weight=         0.00000
 proc =  15  # of atoms=   0  estimated weight=         0.00000
 proc =  16  # of atoms=   0  estimated weight=         0.00000
 proc =  17  # of atoms=   0  estimated weight=         0.00000
 proc =  18  # of atoms=   0  estimated weight=         0.00000
 proc =  19  # of atoms=   0  estimated weight=         0.00000
 proc =  20  # of atoms=   0  estimated weight=         0.00000
 proc =  21  # of atoms=   0  estimated weight=         0.00000
 proc =  22  # of atoms=   0  estimated weight=         0.00000
 proc =  23  # of atoms=   0  estimated weight=         0.00000
 proc =  24  # of atoms=   0  estimated weight=         0.00000
 proc =  25  # of atoms=   0  estimated weight=         0.00000
 proc =  26  # of atoms=   0  estimated weight=         0.00000
 proc =  27  # of atoms=   0  estimated weight=         0.00000
 proc =  28  # of atoms=   0  estimated weight=         0.00000
 proc =  29  # of atoms=   0  estimated weight=         0.00000
 proc =  30  # of atoms=   0  estimated weight=         0.00000
 proc =  31  # of atoms=   0  estimated weight=         0.00000
 proc =  32  # of atoms=   0  estimated weight=         0.00000
 proc =  33  # of atoms=   0  estimated weight=         0.00000
 proc =  34  # of atoms=   0  estimated weight=         0.00000
 proc =  35  # of atoms=   0  estimated weight=         0.00000
 proc =  36  # of atoms=   0  estimated weight=         0.00000
 proc =  37  # of atoms=   0  estimated weight=         0.00000
 proc =  38  # of atoms=   0  estimated weight=         0.00000
 proc =  39  # of atoms=   0  estimated weight=         0.00000
 proc =  40  # of atoms=   0  estimated weight=         0.00000
 proc =  41  # of atoms=   0  estimated weight=         0.00000
 proc =  42  # of atoms=   0  estimated weight=         0.00000
 proc =  43  # of atoms=   0  estimated weight=         0.00000
 proc =  44  # of atoms=   0  estimated weight=         0.00000
 proc =  45  # of atoms=   0  estimated weight=         0.00000
 proc =  46  # of atoms=   0  estimated weight=         0.00000
 proc =  47  # of atoms=   0  estimated weight=         0.00000
 proc =  48  # of atoms=   0  estimated weight=         0.00000
 proc =  49  # of atoms=   0  estimated weight=         0.00000
 proc =  50  # of atoms=   0  estimated weight=         0.00000
 proc =  51  # of atoms=   0  estimated weight=         0.00000
 proc =  52  # of atoms=   0  estimated weight=         0.00000
 proc =  53  # of atoms=   0  estimated weight=         0.00000
 proc =  54  # of atoms=   0  estimated weight=         0.00000
 proc =  55  # of atoms=   0  estimated weight=         0.00000
 proc =  56  # of atoms=   0  estimated weight=         0.00000
 proc =  57  # of atoms=   0  estimated weight=         0.00000
 proc =  58  # of atoms=   0  estimated weight=         0.00000
 proc =  59  # of atoms=   0  estimated weight=         0.00000
 proc =  60  # of atoms=   0  estimated weight=         0.00000
 proc =  61  # of atoms=   0  estimated weight=         0.00000
 proc =  62  # of atoms=   0  estimated weight=         0.00000
 proc =  63  # of atoms=   0  estimated weight=         0.00000
 proc =  64  # of atoms=   0  estimated weight=         0.00000
 proc =  65  # of atoms=   0  estimated weight=         0.00000
 proc =  66  # of atoms=   0  estimated weight=         0.00000
 proc =  67  # of atoms=   0  estimated weight=         0.00000
 proc =  68  # of atoms=   0  estimated weight=         0.00000
 proc =  69  # of atoms=   0  estimated weight=         0.00000
 proc =  70  # of atoms=   0  estimated weight=         0.00000
 proc =  71  # of atoms=   0  estimated weight=         0.00000
 proc =  72  # of atoms=   0  estimated weight=         0.00000
 proc =  73  # of atoms=   0  estimated weight=         0.00000
 proc =  74  # of atoms=   0  estimated weight=         0.00000
 proc =  75  # of atoms=   0  estimated weight=         0.00000
 proc =  76  # of atoms=   0  estimated weight=         0.00000
 proc =  77  # of atoms=   0  estimated weight=         0.00000
 proc =  78  # of atoms=   0  estimated weight=         0.00000
 proc =  79  # of atoms=   0  estimated weight=         0.00000
 proc =  80  # of atoms=   0  estimated weight=         0.00000
 proc =  81  # of atoms=   0  estimated weight=         0.00000
 proc =  82  # of atoms=   0  estimated weight=         0.00000
 proc =  83  # of atoms=   0  estimated weight=         0.00000
 proc =  84  # of atoms=   0  estimated weight=         0.00000
 proc =  85  # of atoms=   0  estimated weight=         0.00000
 proc =  86  # of atoms=   0  estimated weight=         0.00000
 proc =  87  # of atoms=   0  estimated weight=         0.00000
 proc =  88  # of atoms=   0  estimated weight=         0.00000
 proc =  89  # of atoms=   0  estimated weight=         0.00000
 proc =  90  # of atoms=   0  estimated weight=         0.00000
 proc =  91  # of atoms=   0  estimated weight=         0.00000
 proc =  92  # of atoms=   0  estimated weight=         0.00000
 proc =  93  # of atoms=   0  estimated weight=         0.00000
 proc =  94  # of atoms=   0  estimated weight=         0.00000
 proc =  95  # of atoms=   0  estimated weight=         0.00000
 proc =  96  # of atoms=   0  estimated weight=         0.00000
 proc =  97  # of atoms=   0  estimated weight=         0.00000
 proc =  98  # of atoms=   0  estimated weight=         0.00000
 proc =  99  # of atoms=   0  estimated weight=         0.00000
 proc = 100  # of atoms=   0  estimated weight=         0.00000
 proc = 101  # of atoms=   0  estimated weight=         0.00000
 proc = 102  # of atoms=   0  estimated weight=         0.00000
 proc = 103  # of atoms=   0  estimated weight=         0.00000
 proc = 104  # of atoms=   0  estimated weight=         0.00000
 proc = 105  # of atoms=   0  estimated weight=         0.00000
 proc = 106  # of atoms=   0  estimated weight=         0.00000
 proc = 107  # of atoms=   0  estimated weight=         0.00000
 proc = 108  # of atoms=   0  estimated weight=         0.00000
 proc = 109  # of atoms=   0  estimated weight=         0.00000
 proc = 110  # of atoms=   0  estimated weight=         0.00000
 proc = 111  # of atoms=   0  estimated weight=         0.00000
 proc = 112  # of atoms=   0  estimated weight=         0.00000
 proc = 113  # of atoms=   0  estimated weight=         0.00000
 proc = 114  # of atoms=   0  estimated weight=         0.00000
 proc = 115  # of atoms=   0  estimated weight=         0.00000
 proc = 116  # of atoms=   0  estimated weight=         0.00000
 proc = 117  # of atoms=   0  estimated weight=         0.00000
 proc = 118  # of atoms=   0  estimated weight=         0.00000
 proc = 119  # of atoms=   0  estimated weight=         0.00000
 proc = 120  # of atoms=   0  estimated weight=         0.00000
 proc = 121  # of atoms=   0  estimated weight=         0.00000
 proc = 122  # of atoms=   0  estimated weight=         0.00000
 proc = 123  # of atoms=   0  estimated weight=         0.00000
 proc = 124  # of atoms=   0  estimated weight=         0.00000
 proc = 125  # of atoms=   0  estimated weight=         0.00000
 proc = 126  # of atoms=   0  estimated weight=         0.00000
 proc = 127  # of atoms=   0  estimated weight=         0.00000




*******************************************************
        Analysis of neighbors and setting of grids        
*******************************************************

TFNAN=     216   Average FNAN=  54.00000
TSNAN=       0   Average SNAN=   0.00000
<truncation> CpyCell= 1 ct_AN=   1 FNAN SNAN  54   0
<truncation> CpyCell= 1 ct_AN=   2 FNAN SNAN  54   0
<truncation> CpyCell= 1 ct_AN=   3 FNAN SNAN  54   0
<truncation> CpyCell= 1 ct_AN=   4 FNAN SNAN  54   0
TFNAN=     256   Average FNAN=  64.00000
TSNAN=       0   Average SNAN=   0.00000
<truncation> CpyCell= 2 ct_AN=   1 FNAN SNAN  64   0
<truncation> CpyCell= 2 ct_AN=   2 FNAN SNAN  64   0
<truncation> CpyCell= 2 ct_AN=   3 FNAN SNAN  64   0
<truncation> CpyCell= 2 ct_AN=   4 FNAN SNAN  64   0
TFNAN=     256   Average FNAN=  64.00000
TSNAN=       0   Average SNAN=   0.00000
<truncation> CpyCell= 3 ct_AN=   1 FNAN SNAN  64   0
<truncation> CpyCell= 3 ct_AN=   2 FNAN SNAN  64   0
<truncation> CpyCell= 3 ct_AN=   3 FNAN SNAN  64   0
<truncation> CpyCell= 3 ct_AN=   4 FNAN SNAN  64   0
TFNAN=     256   Average FNAN=  64.00000
TSNAN=       0   Average SNAN=   0.00000
<truncation> CpyCell= 3 ct_AN=   1 FNAN SNAN  64   0
<truncation> CpyCell= 3 ct_AN=   2 FNAN SNAN  64   0
<truncation> CpyCell= 3 ct_AN=   3 FNAN SNAN  64   0
<truncation> CpyCell= 3 ct_AN=   4 FNAN SNAN  64   0
<Check_System> The system is bulk.
lattice vectors (bohr)
A  = 11.281664151816,  0.000000000000,  0.000000000000
B  =  0.000000000000, 11.281664151816,  0.000000000000
C  =  0.000000000000,  0.000000000000,  6.081138231247
reciprocal lattice vectors (bohr^-1)
RA =  0.556937808343,  0.000000000000,  0.000000000000
RB =  0.000000000000,  0.556937808343,  0.000000000000
RC =  0.000000000000,  0.000000000000,  1.033225206902
Grid_Origin -2.707599396436 -2.707599396436 -0.647528607957
Cell_Volume =    773.982621347759 (Bohr^3)
GridVol     =      0.011466409205 (Bohr^3)
Grid_Origin -2.707599396436 -2.707599396436 -0.647528607957
Cell_Volume =    773.982621347759 (Bohr^3)
GridVol     =      0.011466409205 (Bohr^3)
<UCell_Box> Info. of cutoff energy and num. of grids
lattice vectors (bohr)
A  = 11.281664151816,  0.000000000000,  0.000000000000
B  =  0.000000000000, 11.281664151816,  0.000000000000
C  =  0.000000000000,  0.000000000000,  6.081138231247
reciprocal lattice vectors (bohr^-1)
RA =  0.556937808343,  0.000000000000,  0.000000000000
RB =  0.000000000000,  0.556937808343,  0.000000000000
RC =  0.000000000000,  0.000000000000,  1.033225206902
Required cutoff energy (Ryd) for 3D-grids = 200.0000
    Used cutoff energy (Ryd) for 3D-grids = 193.8623, 193.8623, 194.5618
Num. of grids of a-, b-, and c-axes = 50, 50, 27
Grid_Origin -2.707599396436 -2.707599396436 -0.647528607957
Cell_Volume =    773.982621347759 (Bohr^3)
GridVol     =      0.011466409205 (Bohr^3)
Cell vectors (bohr) of the grid cell (gtv)
  gtv_a =  0.225633283036,  0.000000000000,  0.000000000000
  gtv_b =  0.000000000000,  0.225633283036,  0.000000000000
  gtv_c =  0.000000000000,  0.000000000000,  0.225227341898
  |gtv_a| =  0.225633283036
  |gtv_b| =  0.225633283036
  |gtv_c| =  0.225227341898
Num. of grids overlapping with atom    1 = 125150
Num. of grids overlapping with atom    2 = 125326
Num. of grids overlapping with atom    3 = 125326
Num. of grids overlapping with atom    4 = 125150

*******************************************************
             SCF calculation at MD = 1                
*******************************************************

<MD= 1>  Calculation of the overlap matrix
<MD= 1>  Calculation of the nonlocal matrix
<MD= 1>  Calculation of the VNA projector matrix

******************* MD= 1  SCF= 1 *******************
<Band>  Solving the eigenvalue problem...
 KGrids1:  -0.43750  -0.31250  -0.18750  -0.06250   0.06250   0.18750   0.31250   0.43750 
 KGrids2:  -0.43750  -0.31250  -0.18750  -0.06250   0.06250   0.18750   0.31250   0.43750 
 KGrids3:  -0.46428  -0.39286  -0.32143  -0.25000  -0.17857  -0.10714  -0.03571   0.03572   0.10714   0.17857   0.25000   0.32143   0.39286   0.46429 
<Band_DFT>  Eigen, time=0.278180
<Band_DFT>  DM, time=0.143060
    1   Sn  MulP   7.0000  7.0000 sum  14.0000
    2   Sn  MulP   7.0000  7.0000 sum  14.0000
    3   Sn  MulP   7.0000  7.0000 sum  14.0000
    4   Sn  MulP   7.0000  7.0000 sum  14.0000
 Sum of MulP: up   =    28.00000 down          =    28.00000
              total=    56.00000 ideal(neutral)=    56.00000
<DFT>  Total Spin Moment (muB) =  0.000000000000
<DFT>  Mixing_weight= 0.005000000000
<DFT>  Uele   =  -41.308249158544  dUele     =   1.000000000000
<DFT>  NormRD =    1.000000000000  Criterion =   0.000000100000

******************* MD= 1  SCF= 2 *******************
<Poisson>  Poisson's equation using FFT...
<Set_Hamiltonian>  Hamiltonian matrix for VNA+dVH+Vxc...
<Band>  Solving the eigenvalue problem...
 KGrids1:  -0.43750  -0.31250  -0.18750  -0.06250   0.06250   0.18750   0.31250   0.43750 
 KGrids2:  -0.43750  -0.31250  -0.18750  -0.06250   0.06250   0.18750   0.31250   0.43750 
 KGrids3:  -0.46428  -0.39286  -0.32143  -0.25000  -0.17857  -0.10714  -0.03571   0.03572   0.10714   0.17857   0.25000   0.32143   0.39286   0.46429 
<Band_DFT>  Eigen, time=0.063748
<Band_DFT>  DM, time=0.125838
    1   Sn  MulP   7.0000  7.0000 sum  14.0000
    2   Sn  MulP   7.0000  7.0000 sum  14.0000
    3   Sn  MulP   7.0000  7.0000 sum  14.0000
    4   Sn  MulP   7.0000  7.0000 sum  14.0000
 Sum of MulP: up   =    28.00000 down          =    28.00000
              total=    56.00000 ideal(neutral)=    56.00000
<DFT>  Total Spin Moment (muB) =  0.000000000000
<DFT>  Mixing_weight= 0.013103433152
<DFT>  Uele   =  -41.308249158544  dUele     =   0.000000000000
<DFT>  NormRD =    0.786397235639  Criterion =   0.000000100000

******************* MD= 1  SCF= 3 *******************
<Poisson>  Poisson's equation using FFT...
<Set_Hamiltonian>  Hamiltonian matrix for VNA+dVH+Vxc...
<Band>  Solving the eigenvalue problem...
 KGrids1:  -0.43750  -0.31250  -0.18750  -0.06250   0.06250   0.18750   0.31250   0.43750 
 KGrids2:  -0.43750  -0.31250  -0.18750  -0.06250   0.06250   0.18750   0.31250   0.43750 
 KGrids3:  -0.46428  -0.39286  -0.32143  -0.25000  -0.17857  -0.10714  -0.03571   0.03572   0.10714   0.17857   0.25000   0.32143   0.39286   0.46429 
<Band_DFT>  Eigen, time=0.063575
<Band_DFT>  DM, time=0.123301
    1   Sn  MulP   7.0000  7.0000 sum  14.0000
    2   Sn  MulP   7.0000  7.0000 sum  14.0000
    3   Sn  MulP   7.0000  7.0000 sum  14.0000
    4   Sn  MulP   7.0000  7.0000 sum  14.0000
 Sum of MulP: up   =    28.00000 down          =    28.00000
              total=    56.00000 ideal(neutral)=    56.00000
<DFT>  Total Spin Moment (muB) =  0.000000000000
<DFT>  Mixing_weight= 0.030000000000
<DFT>  Uele   =  -41.313826127943  dUele     =   0.005576969399
<DFT>  NormRD =    0.781684246984  Criterion =   0.000000100000

******************* MD= 1  SCF= 4 *******************
<Poisson>  Poisson's equation using FFT...
<Set_Hamiltonian>  Hamiltonian matrix for VNA+dVH+Vxc...
<Band>  Solving the eigenvalue problem...
 KGrids1:  -0.43750  -0.31250  -0.18750  -0.06250   0.06250   0.18750   0.31250   0.43750 
 KGrids2:  -0.43750  -0.31250  -0.18750  -0.06250   0.06250   0.18750   0.31250   0.43750 
 KGrids3:  -0.46428  -0.39286  -0.32143  -0.25000  -0.17857  -0.10714  -0.03571   0.03572   0.10714   0.17857   0.25000   0.32143   0.39286   0.46429 
<Band_DFT>  Eigen, time=0.063405
<Band_DFT>  DM, time=0.121356
    1   Sn  MulP   7.0000  7.0000 sum  14.0000
    2   Sn  MulP   7.0000  7.0000 sum  14.0000
    3   Sn  MulP   7.0000  7.0000 sum  14.0000
    4   Sn  MulP   7.0000  7.0000 sum  14.0000
 Sum of MulP: up   =    28.00000 down          =    28.00000
              total=    56.00000 ideal(neutral)=    56.00000
<DFT>  Total Spin Moment (muB) =  0.000000000000
<DFT>  Mixing_weight= 0.030000000000
<DFT>  Uele   =  -41.326512328218  dUele     =   0.012686200275
<DFT>  NormRD =    0.770970384600  Criterion =   0.000000100000

******************* MD= 1  SCF= 5 *******************
<Poisson>  Poisson's equation using FFT...
<Set_Hamiltonian>  Hamiltonian matrix for VNA+dVH+Vxc...
<Band>  Solving the eigenvalue problem...
 KGrids1:  -0.43750  -0.31250  -0.18750  -0.06250   0.06250   0.18750   0.31250   0.43750 
 KGrids2:  -0.43750  -0.31250  -0.18750  -0.06250   0.06250   0.18750   0.31250   0.43750 
 KGrids3:  -0.46428  -0.39286  -0.32143  -0.25000  -0.17857  -0.10714  -0.03571   0.03572   0.10714   0.17857   0.25000   0.32143   0.39286   0.46429 
<Band_DFT>  Eigen, time=0.063797
<Band_DFT>  DM, time=0.120697
    1   Sn  MulP   7.0000  7.0000 sum  14.0000
    2   Sn  MulP   7.0000  7.0000 sum  14.0000
    3   Sn  MulP   7.0000  7.0000 sum  14.0000
    4   Sn  MulP   7.0000  7.0000 sum  14.0000
 Sum of MulP: up   =    28.00000 down          =    28.00000
              total=    56.00000 ideal(neutral)=    56.00000
<DFT>  Total Spin Moment (muB) =  0.000000000000
<DFT>  Mixing_weight= 0.030000000000
<DFT>  Uele   =  -41.339011850993  dUele     =   0.012499522775
<DFT>  NormRD =    0.760422803362  Criterion =   0.000000100000

******************* MD= 1  SCF= 6 *******************
<Poisson>  Poisson's equation using FFT...
<Set_Hamiltonian>  Hamiltonian matrix for VNA+dVH+Vxc...
<Band>  Solving the eigenvalue problem...
 KGrids1:  -0.43750  -0.31250  -0.18750  -0.06250   0.06250   0.18750   0.31250   0.43750 
 KGrids2:  -0.43750  -0.31250  -0.18750  -0.06250   0.06250   0.18750   0.31250   0.43750 
 KGrids3:  -0.46428  -0.39286  -0.32143  -0.25000  -0.17857  -0.10714  -0.03571   0.03572   0.10714   0.17857   0.25000   0.32143   0.39286   0.46429 
<Band_DFT>  Eigen, time=0.063451
<Band_DFT>  DM, time=0.121217
    1   Sn  MulP   7.0000  7.0000 sum  14.0000
    2   Sn  MulP   7.0000  7.0000 sum  14.0000
    3   Sn  MulP   7.0000  7.0000 sum  14.0000
    4   Sn  MulP   7.0000  7.0000 sum  14.0000
 Sum of MulP: up   =    28.00000 down          =    28.00000
              total=    56.00000 ideal(neutral)=    56.00000
<DFT>  Total Spin Moment (muB) =  0.000000000000
<DFT>  Mixing_weight= 0.030000000000
<DFT>  Uele   =  -41.351327581225  dUele     =   0.012315730231
<DFT>  NormRD =    0.750038513379  Criterion =   0.000000100000

******************* MD= 1  SCF= 7 *******************
<Poisson>  Poisson's equation using FFT...
<Set_Hamiltonian>  Hamiltonian matrix for VNA+dVH+Vxc...
<Band>  Solving the eigenvalue problem...
 KGrids1:  -0.43750  -0.31250  -0.18750  -0.06250   0.06250   0.18750   0.31250   0.43750 
 KGrids2:  -0.43750  -0.31250  -0.18750  -0.06250   0.06250   0.18750   0.31250   0.43750 
 KGrids3:  -0.46428  -0.39286  -0.32143  -0.25000  -0.17857  -0.10714  -0.03571   0.03572   0.10714   0.17857   0.25000   0.32143   0.39286   0.46429 
<Band_DFT>  Eigen, time=0.061856
<Band_DFT>  DM, time=0.118123
    1   Sn  MulP   7.0000  7.0000 sum  14.0000
    2   Sn  MulP   7.0000  7.0000 sum  14.0000
    3   Sn  MulP   7.0000  7.0000 sum  14.0000
    4   Sn  MulP   7.0000  7.0000 sum  14.0000
 Sum of MulP: up   =    28.00000 down          =    28.00000
              total=    56.00000 ideal(neutral)=    56.00000
<DFT>  Total Spin Moment (muB) =  0.000000000000
<DFT>  Mixing_weight= 0.030000000000
<DFT>  Uele   =  -41.363462356794  dUele     =   0.012134775569
<DFT>  NormRD =    0.739814586433  Criterion =   0.000000100000

******************* MD= 1  SCF= 8 *******************
<Poisson>  Poisson's equation using FFT...
<Set_Hamiltonian>  Hamiltonian matrix for VNA+dVH+Vxc...
<Band>  Solving the eigenvalue problem...
 KGrids1:  -0.43750  -0.31250  -0.18750  -0.06250   0.06250   0.18750   0.31250   0.43750 
 KGrids2:  -0.43750  -0.31250  -0.18750  -0.06250   0.06250   0.18750   0.31250   0.43750 
 KGrids3:  -0.46428  -0.39286  -0.32143  -0.25000  -0.17857  -0.10714  -0.03571   0.03572   0.10714   0.17857   0.25000   0.32143   0.39286   0.46429 
<Band_DFT>  Eigen, time=0.060823
<Band_DFT>  DM, time=0.115774
    1   Sn  MulP   7.0000  7.0000 sum  14.0000
    2   Sn  MulP   7.0000  7.0000 sum  14.0000
    3   Sn  MulP   7.0000  7.0000 sum  14.0000
    4   Sn  MulP   7.0000  7.0000 sum  14.0000
 Sum of MulP: up   =    28.00000 down          =    28.00000
              total=    56.00000 ideal(neutral)=    56.00000
<DFT>  Total Spin Moment (muB) =  0.000000000000
<DFT>  Mixing_weight= 0.030000000000
<DFT>  Uele   =  -41.375418969319  dUele     =   0.011956612526
<DFT>  NormRD =    0.729748154756  Criterion =   0.000000100000

******************* MD= 1  SCF= 9 *******************
<Poisson>  Poisson's equation using FFT...
<Set_Hamiltonian>  Hamiltonian matrix for VNA+dVH+Vxc...
<Band>  Solving the eigenvalue problem...
 KGrids1:  -0.43750  -0.31250  -0.18750  -0.06250   0.06250   0.18750   0.31250   0.43750 
 KGrids2:  -0.43750  -0.31250  -0.18750  -0.06250   0.06250   0.18750   0.31250   0.43750 
 KGrids3:  -0.46428  -0.39286  -0.32143  -0.25000  -0.17857  -0.10714  -0.03571   0.03572   0.10714   0.17857   0.25000   0.32143   0.39286   0.46429 
<Band_DFT>  Eigen, time=0.061551
<Band_DFT>  DM, time=0.112730
    1   Sn  MulP   7.0000  7.0000 sum  14.0000
    2   Sn  MulP   7.0000  7.0000 sum  14.0000
    3   Sn  MulP   7.0000  7.0000 sum  14.0000
    4   Sn  MulP   7.0000  7.0000 sum  14.0000
 Sum of MulP: up   =    28.00000 down          =    28.00000
              total=    56.00000 ideal(neutral)=    56.00000
<DFT>  Total Spin Moment (muB) =  0.000000000000
<DFT>  Mixing_weight= 0.030000000000
<DFT>  Uele   =  -41.387200164968  dUele     =   0.011781195648
<DFT>  NormRD =    0.719836409344  Criterion =   0.000000100000

******************* MD= 1  SCF=10 *******************
<Poisson>  Poisson's equation using FFT...
<Set_Hamiltonian>  Hamiltonian matrix for VNA+dVH+Vxc...
<Band>  Solving the eigenvalue problem...
 KGrids1:  -0.43750  -0.31250  -0.18750  -0.06250   0.06250   0.18750   0.31250   0.43750 
 KGrids2:  -0.43750  -0.31250  -0.18750  -0.06250   0.06250   0.18750   0.31250   0.43750 
 KGrids3:  -0.46428  -0.39286  -0.32143  -0.25000  -0.17857  -0.10714  -0.03571   0.03572   0.10714   0.17857   0.25000   0.32143   0.39286   0.46429 
<Band_DFT>  Eigen, time=0.061623
<Band_DFT>  DM, time=0.112607
    1   Sn  MulP   7.0000  7.0000 sum  14.0000
    2   Sn  MulP   7.0000  7.0000 sum  14.0000
    3   Sn  MulP   7.0000  7.0000 sum  14.0000
    4   Sn  MulP   7.0000  7.0000 sum  14.0000
 Sum of MulP: up   =    28.00000 down          =    28.00000
              total=    56.00000 ideal(neutral)=    56.00000
<DFT>  Total Spin Moment (muB) =  0.000000000000
<DFT>  Mixing_weight= 0.030000000000
<DFT>  Uele   =  -41.398808645236  dUele     =   0.011608480268
<DFT>  NormRD =    0.710076598948  Criterion =   0.000000100000

******************* MD= 1  SCF=11 *******************
<Poisson>  Poisson's equation using FFT...
<Set_Hamiltonian>  Hamiltonian matrix for VNA+dVH+Vxc...
<Band>  Solving the eigenvalue problem...
 KGrids1:  -0.43750  -0.31250  -0.18750  -0.06250   0.06250   0.18750   0.31250   0.43750 
 KGrids2:  -0.43750  -0.31250  -0.18750  -0.06250   0.06250   0.18750   0.31250   0.43750 
 KGrids3:  -0.46428  -0.39286  -0.32143  -0.25000  -0.17857  -0.10714  -0.03571   0.03572   0.10714   0.17857   0.25000   0.32143   0.39286   0.46429 
<Band_DFT>  Eigen, time=0.060410
<Band_DFT>  DM, time=0.111006
    1   Sn  MulP   7.0000  7.0000 sum  14.0000
    2   Sn  MulP   7.0000  7.0000 sum  14.0000
    3   Sn  MulP   7.0000  7.0000 sum  14.0000
    4   Sn  MulP   7.0000  7.0000 sum  14.0000
 Sum of MulP: up   =    28.00000 down          =    28.00000
              total=    56.00000 ideal(neutral)=    56.00000
<DFT>  Total Spin Moment (muB) =  0.000000000000
<DFT>  Mixing_weight= 0.030000000000
<DFT>  Uele   =  -41.410247067734  dUele     =   0.011438422498
<DFT>  NormRD =    0.700466028509  Criterion =   0.000000100000

******************* MD= 1  SCF=12 *******************
<Poisson>  Poisson's equation using FFT...
<Set_Hamiltonian>  Hamiltonian matrix for VNA+dVH+Vxc...
<Band>  Solving the eigenvalue problem...
 KGrids1:  -0.43750  -0.31250  -0.18750  -0.06250   0.06250   0.18750   0.31250   0.43750 
 KGrids2:  -0.43750  -0.31250  -0.18750  -0.06250   0.06250   0.18750   0.31250   0.43750 
 KGrids3:  -0.46428  -0.39286  -0.32143  -0.25000  -0.17857  -0.10714  -0.03571   0.03572   0.10714   0.17857   0.25000   0.32143   0.39286   0.46429 
<Band_DFT>  Eigen, time=0.061291
<Band_DFT>  DM, time=0.108954
    1   Sn  MulP   7.0000  7.0000 sum  14.0000
    2   Sn  MulP   7.0000  7.0000 sum  14.0000
    3   Sn  MulP   7.0000  7.0000 sum  14.0000
    4   Sn  MulP   7.0000  7.0000 sum  14.0000
 Sum of MulP: up   =    28.00000 down          =    28.00000
              total=    56.00000 ideal(neutral)=    56.00000
<DFT>  Total Spin Moment (muB) =  0.000000000000
<DFT>  Mixing_weight= 0.030000000000
<DFT>  Uele   =  -41.421518046933  dUele     =   0.011270979199
<DFT>  NormRD =    0.691002057970  Criterion =   0.000000100000

******************* MD= 1  SCF=13 *******************
<Poisson>  Poisson's equation using FFT...
<Set_Hamiltonian>  Hamiltonian matrix for VNA+dVH+Vxc...
<Band>  Solving the eigenvalue problem...
 KGrids1:  -0.43750  -0.31250  -0.18750  -0.06250   0.06250   0.18750   0.31250   0.43750 
 KGrids2:  -0.43750  -0.31250  -0.18750  -0.06250   0.06250   0.18750   0.31250   0.43750 
 KGrids3:  -0.46428  -0.39286  -0.32143  -0.25000  -0.17857  -0.10714  -0.03571   0.03572   0.10714   0.17857   0.25000   0.32143   0.39286   0.46429 
<Band_DFT>  Eigen, time=0.061641
<Band_DFT>  DM, time=0.108374
    1   Sn  MulP   7.0000  7.0000 sum  14.0000
    2   Sn  MulP   7.0000  7.0000 sum  14.0000
    3   Sn  MulP   7.0000  7.0000 sum  14.0000
    4   Sn  MulP   7.0000  7.0000 sum  14.0000
 Sum of MulP: up   =    28.00000 down          =    28.00000
              total=    56.00000 ideal(neutral)=    56.00000
<DFT>  Total Spin Moment (muB) =  0.000000000000
<DFT>  Mixing_weight= 0.030000000000
<DFT>  Uele   =  -41.432624154916  dUele     =   0.011106107984
<DFT>  NormRD =    0.681682101082  Criterion =   0.000000100000

******************* MD= 1  SCF=14 *******************
<Poisson>  Poisson's equation using FFT...
<Set_Hamiltonian>  Hamiltonian matrix for VNA+dVH+Vxc...
<Band>  Solving the eigenvalue problem...
 KGrids1:  -0.43750  -0.31250  -0.18750  -0.06250   0.06250   0.18750   0.31250   0.43750 
 KGrids2:  -0.43750  -0.31250  -0.18750  -0.06250   0.06250   0.18750   0.31250   0.43750 
 KGrids3:  -0.46428  -0.39286  -0.32143  -0.25000  -0.17857  -0.10714  -0.03571   0.03572   0.10714   0.17857   0.25000   0.32143   0.39286   0.46429 
<Band_DFT>  Eigen, time=0.061139
<Band_DFT>  DM, time=0.107584
    1   Sn  MulP   7.0000  7.0000 sum  14.0000
    2   Sn  MulP   7.0000  7.0000 sum  14.0000
    3   Sn  MulP   7.0000  7.0000 sum  14.0000
    4   Sn  MulP   7.0000  7.0000 sum  14.0000
 Sum of MulP: up   =    28.00000 down          =    28.00000
              total=    56.00000 ideal(neutral)=    56.00000
<DFT>  Total Spin Moment (muB) =  0.000000000000
<DFT>  Mixing_weight= 0.030000000000
<DFT>  Uele   =  -41.443567922113  dUele     =   0.010943767197
<DFT>  NormRD =    0.672503624018  Criterion =   0.000000100000

******************* MD= 1  SCF=15 *******************
<Poisson>  Poisson's equation using FFT...
<Set_Hamiltonian>  Hamiltonian matrix for VNA+dVH+Vxc...
<Band>  Solving the eigenvalue problem...
 KGrids1:  -0.43750  -0.31250  -0.18750  -0.06250   0.06250   0.18750   0.31250   0.43750 
 KGrids2:  -0.43750  -0.31250  -0.18750  -0.06250   0.06250   0.18750   0.31250   0.43750 
 KGrids3:  -0.46428  -0.39286  -0.32143  -0.25000  -0.17857  -0.10714  -0.03571   0.03572   0.10714   0.17857   0.25000   0.32143   0.39286   0.46429 
<Band_DFT>  Eigen, time=0.083131
<Band_DFT>  DM, time=0.149072
    1   Sn  MulP   7.0000  7.0000 sum  14.0000
    2   Sn  MulP   7.0000  7.0000 sum  14.0000
    3   Sn  MulP   7.0000  7.0000 sum  14.0000
    4   Sn  MulP   7.0000  7.0000 sum  14.0000
 Sum of MulP: up   =    28.00000 down          =    28.00000
              total=    56.00000 ideal(neutral)=    56.00000
<DFT>  Total Spin Moment (muB) =  0.000000000000
<DFT>  Mixing_weight= 0.030000000000
<DFT>  Uele   =  -41.454351838011  dUele     =   0.010783915898
<DFT>  NormRD =    0.663464144404  Criterion =   0.000000100000

******************* MD= 1  SCF=16 *******************
<Poisson>  Poisson's equation using FFT...
<Set_Hamiltonian>  Hamiltonian matrix for VNA+dVH+Vxc...
<Band>  Solving the eigenvalue problem...
 KGrids1:  -0.43750  -0.31250  -0.18750  -0.06250   0.06250   0.18750   0.31250   0.43750 
 KGrids2:  -0.43750  -0.31250  -0.18750  -0.06250   0.06250   0.18750   0.31250   0.43750 
 KGrids3:  -0.46428  -0.39286  -0.32143  -0.25000  -0.17857  -0.10714  -0.03571   0.03572   0.10714   0.17857   0.25000   0.32143   0.39286   0.46429 
<Band_DFT>  Eigen, time=0.067906
<Band_DFT>  DM, time=0.106646
    1   Sn  MulP   7.0000  7.0000 sum  14.0000
    2   Sn  MulP   7.0000  7.0000 sum  14.0000
    3   Sn  MulP   7.0000  7.0000 sum  14.0000
    4   Sn  MulP   7.0000  7.0000 sum  14.0000
 Sum of MulP: up   =    28.00000 down          =    28.00000
              total=    56.00000 ideal(neutral)=    56.00000
<DFT>  Total Spin Moment (muB) =  0.000000000000
<DFT>  Mixing_weight= 0.030000000000
<DFT>  Uele   =  -41.464978351862  dUele     =   0.010626513851
<DFT>  NormRD =    0.654561229934  Criterion =   0.000000100000

******************* MD= 1  SCF=17 *******************
<Poisson>  Poisson's equation using FFT...
<Set_Hamiltonian>  Hamiltonian matrix for VNA+dVH+Vxc...
<Band>  Solving the eigenvalue problem...
 KGrids1:  -0.43750  -0.31250  -0.18750  -0.06250   0.06250   0.18750   0.31250   0.43750 
 KGrids2:  -0.43750  -0.31250  -0.18750  -0.06250   0.06250   0.18750   0.31250   0.43750 
 KGrids3:  -0.46428  -0.39286  -0.32143  -0.25000  -0.17857  -0.10714  -0.03571   0.03572   0.10714   0.17857   0.25000   0.32143   0.39286   0.46429 
<Band_DFT>  Eigen, time=0.059875
<Band_DFT>  DM, time=0.106450
    1   Sn  MulP   7.0000  7.0000 sum  14.0000
    2   Sn  MulP   7.0000  7.0000 sum  14.0000
    3   Sn  MulP   7.0000  7.0000 sum  14.0000
    4   Sn  MulP   7.0000  7.0000 sum  14.0000
 Sum of MulP: up   =    28.00000 down          =    28.00000
              total=    56.00000 ideal(neutral)=    56.00000
<DFT>  Total Spin Moment (muB) =  0.000000000000
<DFT>  Mixing_weight= 0.030000000000
<DFT>  Uele   =  -41.475449873374  dUele     =   0.010471521512
<DFT>  NormRD =    0.645792497389  Criterion =   0.000000100000

******************* MD= 1  SCF=18 *******************
<Poisson>  Poisson's equation using FFT...
<Set_Hamiltonian>  Hamiltonian matrix for VNA+dVH+Vxc...
<Band>  Solving the eigenvalue problem...
 KGrids1:  -0.43750  -0.31250  -0.18750  -0.06250   0.06250   0.18750   0.31250   0.43750 
 KGrids2:  -0.43750  -0.31250  -0.18750  -0.06250   0.06250   0.18750   0.31250   0.43750 
 KGrids3:  -0.46428  -0.39286  -0.32143  -0.25000  -0.17857  -0.10714  -0.03571   0.03572   0.10714   0.17857   0.25000   0.32143   0.39286   0.46429 
<Band_DFT>  Eigen, time=0.060842
<Band_DFT>  DM, time=0.103937
    1   Sn  MulP   7.0000  7.0000 sum  14.0000
    2   Sn  MulP   7.0000  7.0000 sum  14.0000
    3   Sn  MulP   7.0000  7.0000 sum  14.0000
    4   Sn  MulP   7.0000  7.0000 sum  14.0000
 Sum of MulP: up   =    28.00000 down          =    28.00000
              total=    56.00000 ideal(neutral)=    56.00000
<DFT>  Total Spin Moment (muB) =  0.000000000000
<DFT>  Mixing_weight= 0.030000000000
<DFT>  Uele   =  -41.485768773387  dUele     =   0.010318900013
<DFT>  NormRD =    0.637155611527  Criterion =   0.000000100000

******************* MD= 1  SCF=19 *******************
<Poisson>  Poisson's equation using FFT...
<Set_Hamiltonian>  Hamiltonian matrix for VNA+dVH+Vxc...
<Band>  Solving the eigenvalue problem...
 KGrids1:  -0.43750  -0.31250  -0.18750  -0.06250   0.06250   0.18750   0.31250   0.43750 
 KGrids2:  -0.43750  -0.31250  -0.18750  -0.06250   0.06250   0.18750   0.31250   0.43750 
 KGrids3:  -0.46428  -0.39286  -0.32143  -0.25000  -0.17857  -0.10714  -0.03571   0.03572   0.10714   0.17857   0.25000   0.32143   0.39286   0.46429 
<Band_DFT>  Eigen, time=0.060716
<Band_DFT>  DM, time=0.105641
    1   Sn  MulP   7.0000  7.0000 sum  14.0000
    2   Sn  MulP   7.0000  7.0000 sum  14.0000
    3   Sn  MulP   7.0000  7.0000 sum  14.0000
    4   Sn  MulP   7.0000  7.0000 sum  14.0000
 Sum of MulP: up   =    28.00000 down          =    28.00000
              total=    56.00000 ideal(neutral)=    56.00000
<DFT>  Total Spin Moment (muB) =  0.000000000000
<DFT>  Mixing_weight= 0.030000000000
<DFT>  Uele   =  -41.495937384541  dUele     =   0.010168611154
<DFT>  NormRD =    0.628648283920  Criterion =   0.000000100000

******************* MD= 1  SCF=20 *******************
<Poisson>  Poisson's equation using FFT...
<Set_Hamiltonian>  Hamiltonian matrix for VNA+dVH+Vxc...
<Band>  Solving the eigenvalue problem...
 KGrids1:  -0.43750  -0.31250  -0.18750  -0.06250   0.06250   0.18750   0.31250   0.43750 
 KGrids2:  -0.43750  -0.31250  -0.18750  -0.06250   0.06250   0.18750   0.31250   0.43750 
 KGrids3:  -0.46428  -0.39286  -0.32143  -0.25000  -0.17857  -0.10714  -0.03571   0.03572   0.10714   0.17857   0.25000   0.32143   0.39286   0.46429 
<Band_DFT>  Eigen, time=0.060843
<Band_DFT>  DM, time=0.107064
    1   Sn  MulP   7.0000  7.0000 sum  14.0000
    2   Sn  MulP   7.0000  7.0000 sum  14.0000
    3   Sn  MulP   7.0000  7.0000 sum  14.0000
    4   Sn  MulP   7.0000  7.0000 sum  14.0000
 Sum of MulP: up   =    28.00000 down          =    28.00000
              total=    56.00000 ideal(neutral)=    56.00000
<DFT>  Total Spin Moment (muB) =  0.000000000000
<DFT>  Mixing_weight= 0.030000000000
<DFT>  Uele   =  -41.505958001932  dUele     =   0.010020617391
<DFT>  NormRD =    0.620268271910  Criterion =   0.000000100000

******************* MD= 1  SCF=21 *******************
<Poisson>  Poisson's equation using FFT...
<Set_Hamiltonian>  Hamiltonian matrix for VNA+dVH+Vxc...
<Band>  Solving the eigenvalue problem...
 KGrids1:  -0.43750  -0.31250  -0.18750  -0.06250   0.06250   0.18750   0.31250   0.43750 
 KGrids2:  -0.43750  -0.31250  -0.18750  -0.06250   0.06250   0.18750   0.31250   0.43750 
 KGrids3:  -0.46428  -0.39286  -0.32143  -0.25000  -0.17857  -0.10714  -0.03571   0.03572   0.10714   0.17857   0.25000   0.32143   0.39286   0.46429 
<Band_DFT>  Eigen, time=0.060591
<Band_DFT>  DM, time=0.103145
    1   Sn  MulP   7.0000  7.0000 sum  14.0000
    2   Sn  MulP   7.0000  7.0000 sum  14.0000
    3   Sn  MulP   7.0000  7.0000 sum  14.0000
    4   Sn  MulP   7.0000  7.0000 sum  14.0000
 Sum of MulP: up   =    28.00000 down          =    28.00000
              total=    56.00000 ideal(neutral)=    56.00000
<DFT>  Total Spin Moment (muB) =  0.000000000000
<DFT>  Mixing_weight= 0.030000000000
<DFT>  Uele   =  -41.515832883745  dUele     =   0.009874881814
<DFT>  NormRD =    0.612013377689  Criterion =   0.000000100000

******************* MD= 1  SCF=22 *******************
<Poisson>  Poisson's equation using FFT...
<Set_Hamiltonian>  Hamiltonian matrix for VNA+dVH+Vxc...
<Band>  Solving the eigenvalue problem...
 KGrids1:  -0.43750  -0.31250  -0.18750  -0.06250   0.06250   0.18750   0.31250   0.43750 
 KGrids2:  -0.43750  -0.31250  -0.18750  -0.06250   0.06250   0.18750   0.31250   0.43750 
 KGrids3:  -0.46428  -0.39286  -0.32143  -0.25000  -0.17857  -0.10714  -0.03571   0.03572   0.10714   0.17857   0.25000   0.32143   0.39286   0.46429 
<Band_DFT>  Eigen, time=0.060723
<Band_DFT>  DM, time=0.107160
    1   Sn  MulP   7.0000  7.0000 sum  14.0000
    2   Sn  MulP   7.0000  7.0000 sum  14.0000
    3   Sn  MulP   7.0000  7.0000 sum  14.0000
    4   Sn  MulP   7.0000  7.0000 sum  14.0000
 Sum of MulP: up   =    28.00000 down          =    28.00000
              total=    56.00000 ideal(neutral)=    56.00000
<DFT>  Total Spin Moment (muB) =  0.000000000000
<DFT>  Mixing_weight= 0.030000000000
<DFT>  Uele   =  -41.525564251892  dUele     =   0.009731368147
<DFT>  NormRD =    0.603881447109  Criterion =   0.000000100000

******************* MD= 1  SCF=23 *******************
<Poisson>  Poisson's equation using FFT...
<Set_Hamiltonian>  Hamiltonian matrix for VNA+dVH+Vxc...
<Band>  Solving the eigenvalue problem...
 KGrids1:  -0.43750  -0.31250  -0.18750  -0.06250   0.06250   0.18750   0.31250   0.43750 
 KGrids2:  -0.43750  -0.31250  -0.18750  -0.06250   0.06250   0.18750   0.31250   0.43750 
 KGrids3:  -0.46428  -0.39286  -0.32143  -0.25000  -0.17857  -0.10714  -0.03571   0.03572   0.10714   0.17857   0.25000   0.32143   0.39286   0.46429 
<Band_DFT>  Eigen, time=0.060479
<Band_DFT>  DM, time=0.103570
    1   Sn  MulP   7.0000  7.0000 sum  14.0000
    2   Sn  MulP   7.0000  7.0000 sum  14.0000
    3   Sn  MulP   7.0000  7.0000 sum  14.0000
    4   Sn  MulP   7.0000  7.0000 sum  14.0000
 Sum of MulP: up   =    28.00000 down          =    28.00000
              total=    56.00000 ideal(neutral)=    56.00000
<DFT>  Total Spin Moment (muB) =  0.000000000000
<DFT>  Mixing_weight= 0.030000000000
<DFT>  Uele   =  -41.535154292627  dUele     =   0.009590040735
<DFT>  NormRD =    0.595870368932  Criterion =   0.000000100000

******************* MD= 1  SCF=24 *******************
<Poisson>  Poisson's equation using FFT...
<Set_Hamiltonian>  Hamiltonian matrix for VNA+dVH+Vxc...
<Band>  Solving the eigenvalue problem...
 KGrids1:  -0.43750  -0.31250  -0.18750  -0.06250   0.06250   0.18750   0.31250   0.43750 
 KGrids2:  -0.43750  -0.31250  -0.18750  -0.06250   0.06250   0.18750   0.31250   0.43750 
 KGrids3:  -0.46428  -0.39286  -0.32143  -0.25000  -0.17857  -0.10714  -0.03571   0.03572   0.10714   0.17857   0.25000   0.32143   0.39286   0.46429 
<Band_DFT>  Eigen, time=0.060219
<Band_DFT>  DM, time=0.106597
    1   Sn  MulP   7.0000  7.0000 sum  14.0000
    2   Sn  MulP   7.0000  7.0000 sum  14.0000
    3   Sn  MulP   7.0000  7.0000 sum  14.0000
    4   Sn  MulP   7.0000  7.0000 sum  14.0000
 Sum of MulP: up   =    28.00000 down          =    28.00000
              total=    56.00000 ideal(neutral)=    56.00000
<DFT>  Total Spin Moment (muB) =  0.000000000000
<DFT>  Mixing_weight= 0.030000000000
<DFT>  Uele   =  -41.544605157147  dUele     =   0.009450864520
<DFT>  NormRD =    0.587978073724  Criterion =   0.000000100000

******************* MD= 1  SCF=25 *******************
<Poisson>  Poisson's equation using FFT...
<Set_Hamiltonian>  Hamiltonian matrix for VNA+dVH+Vxc...
<Band>  Solving the eigenvalue problem...
 KGrids1:  -0.43750  -0.31250  -0.18750  -0.06250   0.06250   0.18750   0.31250   0.43750 
 KGrids2:  -0.43750  -0.31250  -0.18750  -0.06250   0.06250   0.18750   0.31250   0.43750 
 KGrids3:  -0.46428  -0.39286  -0.32143  -0.25000  -0.17857  -0.10714  -0.03571   0.03572   0.10714   0.17857   0.25000   0.32143   0.39286   0.46429 
<Band_DFT>  Eigen, time=0.074337
<Band_DFT>  DM, time=0.103313
    1   Sn  MulP   7.0000  7.0000 sum  14.0000
    2   Sn  MulP   7.0000  7.0000 sum  14.0000
    3   Sn  MulP   7.0000  7.0000 sum  14.0000
    4   Sn  MulP   7.0000  7.0000 sum  14.0000
 Sum of MulP: up   =    28.00000 down          =    28.00000
              total=    56.00000 ideal(neutral)=    56.00000
<DFT>  Total Spin Moment (muB) =  0.000000000000
<DFT>  Mixing_weight= 0.030000000000
<DFT>  Uele   =  -41.553918962199  dUele     =   0.009313805052
<DFT>  NormRD =    0.580202533003  Criterion =   0.000000100000

******************* MD= 1  SCF=26 *******************
<Poisson>  Poisson's equation using FFT...
<Set_Hamiltonian>  Hamiltonian matrix for VNA+dVH+Vxc...
<Band>  Solving the eigenvalue problem...
 KGrids1:  -0.43750  -0.31250  -0.18750  -0.06250   0.06250   0.18750   0.31250   0.43750 
 KGrids2:  -0.43750  -0.31250  -0.18750  -0.06250   0.06250   0.18750   0.31250   0.43750 
 KGrids3:  -0.46428  -0.39286  -0.32143  -0.25000  -0.17857  -0.10714  -0.03571   0.03572   0.10714   0.17857   0.25000   0.32143   0.39286   0.46429 
<Band_DFT>  Eigen, time=0.059829
<Band_DFT>  DM, time=0.101696
    1   Sn  MulP   7.0000  7.0000 sum  14.0000
    2   Sn  MulP   7.0000  7.0000 sum  14.0000
    3   Sn  MulP   7.0000  7.0000 sum  14.0000
    4   Sn  MulP   7.0000  7.0000 sum  14.0000
 Sum of MulP: up   =    28.00000 down          =    28.00000
              total=    56.00000 ideal(neutral)=    56.00000
<DFT>  Total Spin Moment (muB) =  0.000000000000
<DFT>  Mixing_weight= 0.030000000000
<DFT>  Uele   =  -41.563097790658  dUele     =   0.009178828459
<DFT>  NormRD =    0.572541758227  Criterion =   0.000000100000

******************* MD= 1  SCF=27 *******************
<Poisson>  Poisson's equation using FFT...
<Set_Hamiltonian>  Hamiltonian matrix for VNA+dVH+Vxc...
<Band>  Solving the eigenvalue problem...
 KGrids1:  -0.43750  -0.31250  -0.18750  -0.06250   0.06250   0.18750   0.31250   0.43750 
 KGrids2:  -0.43750  -0.31250  -0.18750  -0.06250   0.06250   0.18750   0.31250   0.43750 
 KGrids3:  -0.46428  -0.39286  -0.32143  -0.25000  -0.17857  -0.10714  -0.03571   0.03572   0.10714   0.17857   0.25000   0.32143   0.39286   0.46429 
<Band_DFT>  Eigen, time=0.059564
<Band_DFT>  DM, time=0.101620
    1   Sn  MulP   7.0000  7.0000 sum  14.0000
    2   Sn  MulP   7.0000  7.0000 sum  14.0000
    3   Sn  MulP   7.0000  7.0000 sum  14.0000
    4   Sn  MulP   7.0000  7.0000 sum  14.0000
 Sum of MulP: up   =    28.00000 down          =    28.00000
              total=    56.00000 ideal(neutral)=    56.00000
<DFT>  Total Spin Moment (muB) =  0.000000000000
<DFT>  Mixing_weight= 0.030000000000
<DFT>  Uele   =  -41.572143692100  dUele     =   0.009045901441
<DFT>  NormRD =    0.564993799950  Criterion =   0.000000100000

******************* MD= 1  SCF=28 *******************
<Poisson>  Poisson's equation using FFT...
<Set_Hamiltonian>  Hamiltonian matrix for VNA+dVH+Vxc...
<Band>  Solving the eigenvalue problem...
 KGrids1:  -0.43750  -0.31250  -0.18750  -0.06250   0.06250   0.18750   0.31250   0.43750 
 KGrids2:  -0.43750  -0.31250  -0.18750  -0.06250   0.06250   0.18750   0.31250   0.43750 
 KGrids3:  -0.46428  -0.39286  -0.32143  -0.25000  -0.17857  -0.10714  -0.03571   0.03572   0.10714   0.17857   0.25000   0.32143   0.39286   0.46429 
<Band_DFT>  Eigen, time=0.060326
<Band_DFT>  DM, time=0.103253
    1   Sn  MulP   7.0000  7.0000 sum  14.0000
    2   Sn  MulP   7.0000  7.0000 sum  14.0000
    3   Sn  MulP   7.0000  7.0000 sum  14.0000
    4   Sn  MulP   7.0000  7.0000 sum  14.0000
 Sum of MulP: up   =    28.00000 down          =    28.00000
              total=    56.00000 ideal(neutral)=    56.00000
<DFT>  Total Spin Moment (muB) =  0.000000000000
<DFT>  Mixing_weight= 0.030000000000
<DFT>  Uele   =  -41.581058683366  dUele     =   0.008914991267
<DFT>  NormRD =    0.557556747041  Criterion =   0.000000100000

******************* MD= 1  SCF=29 *******************
<Poisson>  Poisson's equation using FFT...
<Set_Hamiltonian>  Hamiltonian matrix for VNA+dVH+Vxc...
<Band>  Solving the eigenvalue problem...
 KGrids1:  -0.43750  -0.31250  -0.18750  -0.06250   0.06250   0.18750   0.31250   0.43750 
 KGrids2:  -0.43750  -0.31250  -0.18750  -0.06250   0.06250   0.18750   0.31250   0.43750 
 KGrids3:  -0.46428  -0.39286  -0.32143  -0.25000  -0.17857  -0.10714  -0.03571   0.03572   0.10714   0.17857   0.25000   0.32143   0.39286   0.46429 
<Band_DFT>  Eigen, time=0.060949
<Band_DFT>  DM, time=0.102555
    1   Sn  MulP   7.0000  7.0000 sum  14.0000
    2   Sn  MulP   7.0000  7.0000 sum  14.0000
    3   Sn  MulP   7.0000  7.0000 sum  14.0000
    4   Sn  MulP   7.0000  7.0000 sum  14.0000
 Sum of MulP: up   =    28.00000 down          =    28.00000
              total=    56.00000 ideal(neutral)=    56.00000
<DFT>  Total Spin Moment (muB) =  0.000000000000
<DFT>  Mixing_weight= 0.030000000000
<DFT>  Uele   =  -41.589844749121  dUele     =   0.008786065755
<DFT>  NormRD =    0.550228725709  Criterion =   0.000000100000

******************* MD= 1  SCF=30 *******************
<Poisson>  Poisson's equation using FFT...
<Set_Hamiltonian>  Hamiltonian matrix for VNA+dVH+Vxc...
<Band>  Solving the eigenvalue problem...
 KGrids1:  -0.43750  -0.31250  -0.18750  -0.06250   0.06250   0.18750   0.31250   0.43750 
 KGrids2:  -0.43750  -0.31250  -0.18750  -0.06250   0.06250   0.18750   0.31250   0.43750 
 KGrids3:  -0.46428  -0.39286  -0.32143  -0.25000  -0.17857  -0.10714  -0.03571   0.03572   0.10714   0.17857   0.25000   0.32143   0.39286   0.46429 
<Band_DFT>  Eigen, time=0.073557
<Band_DFT>  DM, time=0.133879
    1   Sn  MulP   7.0000  7.0000 sum  14.0000
    2   Sn  MulP   7.0000  7.0000 sum  14.0000
    3   Sn  MulP   7.0000  7.0000 sum  14.0000
    4   Sn  MulP   7.0000  7.0000 sum  14.0000
 Sum of MulP: up   =    28.00000 down          =    28.00000
              total=    56.00000 ideal(neutral)=    56.00000
<DFT>  Total Spin Moment (muB) =  0.000000000000
<DFT>  Mixing_weight= 0.030000000000
<DFT>  Uele   =  -41.598503842390  dUele     =   0.008659093268
<DFT>  NormRD =    0.543007898798  Criterion =   0.000000100000

******************* MD= 1  SCF=31 *******************
<Poisson>  Poisson's equation using FFT...
<Set_Hamiltonian>  Hamiltonian matrix for VNA+dVH+Vxc...
<Band>  Solving the eigenvalue problem...
 KGrids1:  -0.43750  -0.31250  -0.18750  -0.06250   0.06250   0.18750   0.31250   0.43750 
 KGrids2:  -0.43750  -0.31250  -0.18750  -0.06250   0.06250   0.18750   0.31250   0.43750 
 KGrids3:  -0.46428  -0.39286  -0.32143  -0.25000  -0.17857  -0.10714  -0.03571   0.03572   0.10714   0.17857   0.25000   0.32143   0.39286   0.46429 
<Band_DFT>  Eigen, time=0.060843
<Band_DFT>  DM, time=0.119019
    1   Sn  MulP   7.0000  7.0000 sum  14.0000
    2   Sn  MulP   7.0000  7.0000 sum  14.0000
    3   Sn  MulP   7.0000  7.0000 sum  14.0000
    4   Sn  MulP   7.0000  7.0000 sum  14.0000
 Sum of MulP: up   =    28.00000 down          =    28.00000
              total=    56.00000 ideal(neutral)=    56.00000
<DFT>  Total Spin Moment (muB) =  0.000000000000
<DFT>  Mixing_weight= 0.030000000000
<DFT>  Uele   =  -41.607037885093  dUele     =   0.008534042704
<DFT>  NormRD =    0.535892464905  Criterion =   0.000000100000

******************* MD= 1  SCF=32 *******************
<Poisson>  Poisson's equation using FFT...
<Set_Hamiltonian>  Hamiltonian matrix for VNA+dVH+Vxc...
<Band>  Solving the eigenvalue problem...
 KGrids1:  -0.43750  -0.31250  -0.18750  -0.06250   0.06250   0.18750   0.31250   0.43750 
 KGrids2:  -0.43750  -0.31250  -0.18750  -0.06250   0.06250   0.18750   0.31250   0.43750 
 KGrids3:  -0.46428  -0.39286  -0.32143  -0.25000  -0.17857  -0.10714  -0.03571   0.03572   0.10714   0.17857   0.25000   0.32143   0.39286   0.46429 
<Band_DFT>  Eigen, time=0.059680
<Band_DFT>  DM, time=0.100947
    1   Sn  MulP   7.0000  7.0000 sum  14.0000
    2   Sn  MulP   7.0000  7.0000 sum  14.0000
    3   Sn  MulP   7.0000  7.0000 sum  14.0000
    4   Sn  MulP   7.0000  7.0000 sum  14.0000
 Sum of MulP: up   =    28.00000 down          =    28.00000
              total=    56.00000 ideal(neutral)=    56.00000
<DFT>  Total Spin Moment (muB) =  0.000000000000
<DFT>  Mixing_weight= 0.030000000000
<DFT>  Uele   =  -41.615448768576  dUele     =   0.008410883482
<DFT>  NormRD =    0.528880657590  Criterion =   0.000000100000

******************* MD= 1  SCF=33 *******************
<Poisson>  Poisson's equation using FFT...
<Set_Hamiltonian>  Hamiltonian matrix for VNA+dVH+Vxc...
<Band>  Solving the eigenvalue problem...
 KGrids1:  -0.43750  -0.31250  -0.18750  -0.06250   0.06250   0.18750   0.31250   0.43750 
 KGrids2:  -0.43750  -0.31250  -0.18750  -0.06250   0.06250   0.18750   0.31250   0.43750 
 KGrids3:  -0.46428  -0.39286  -0.32143  -0.25000  -0.17857  -0.10714  -0.03571   0.03572   0.10714   0.17857   0.25000   0.32143   0.39286   0.46429 
<Band_DFT>  Eigen, time=0.060609
<Band_DFT>  DM, time=0.101033
    1   Sn  MulP   7.0000  7.0000 sum  14.0000
    2   Sn  MulP   7.0000  7.0000 sum  14.0000
    3   Sn  MulP   7.0000  7.0000 sum  14.0000
    4   Sn  MulP   7.0000  7.0000 sum  14.0000
 Sum of MulP: up   =    28.00000 down          =    28.00000
              total=    56.00000 ideal(neutral)=    56.00000
<DFT>  Total Spin Moment (muB) =  0.000000000000
<DFT>  Mixing_weight= 0.030000000000
<DFT>  Uele   =  -41.623738354114  dUele     =   0.008289585538
<DFT>  NormRD =    0.521970744697  Criterion =   0.000000100000

******************* MD= 1  SCF=34 *******************
<Poisson>  Poisson's equation using FFT...
<Set_Hamiltonian>  Hamiltonian matrix for VNA+dVH+Vxc...
<Band>  Solving the eigenvalue problem...
 KGrids1:  -0.43750  -0.31250  -0.18750  -0.06250   0.06250   0.18750   0.31250   0.43750 
 KGrids2:  -0.43750  -0.31250  -0.18750  -0.06250   0.06250   0.18750   0.31250   0.43750 
 KGrids3:  -0.46428  -0.39286  -0.32143  -0.25000  -0.17857  -0.10714  -0.03571   0.03572   0.10714   0.17857   0.25000   0.32143   0.39286   0.46429 
<Band_DFT>  Eigen, time=0.060762
<Band_DFT>  DM, time=0.100680
    1   Sn  MulP   7.0000  7.0000 sum  14.0000
    2   Sn  MulP   7.0000  7.0000 sum  14.0000
    3   Sn  MulP   7.0000  7.0000 sum  14.0000
    4   Sn  MulP   7.0000  7.0000 sum  14.0000
 Sum of MulP: up   =    28.00000 down          =    28.00000
              total=    56.00000 ideal(neutral)=    56.00000
<DFT>  Total Spin Moment (muB) =  0.000000000000
<DFT>  Mixing_weight= 0.030000000000
<DFT>  Uele   =  -41.631908473428  dUele     =   0.008170119314
<DFT>  NormRD =    0.515161027500  Criterion =   0.000000100000

******************* MD= 1  SCF=35 *******************
<Poisson>  Poisson's equation using FFT...
<Set_Hamiltonian>  Hamiltonian matrix for VNA+dVH+Vxc...
<Band>  Solving the eigenvalue problem...
 KGrids1:  -0.43750  -0.31250  -0.18750  -0.06250   0.06250   0.18750   0.31250   0.43750 
 KGrids2:  -0.43750  -0.31250  -0.18750  -0.06250   0.06250   0.18750   0.31250   0.43750 
 KGrids3:  -0.46428  -0.39286  -0.32143  -0.25000  -0.17857  -0.10714  -0.03571   0.03572   0.10714   0.17857   0.25000   0.32143   0.39286   0.46429 
<Band_DFT>  Eigen, time=0.061215
<Band_DFT>  DM, time=0.100466
    1   Sn  MulP   7.0000  7.0000 sum  14.0000
    2   Sn  MulP   7.0000  7.0000 sum  14.0000
    3   Sn  MulP   7.0000  7.0000 sum  14.0000
    4   Sn  MulP   7.0000  7.0000 sum  14.0000
 Sum of MulP: up   =    28.00000 down          =    28.00000
              total=    56.00000 ideal(neutral)=    56.00000
<DFT>  Total Spin Moment (muB) =  0.000000000000
<DFT>  Mixing_weight= 0.030000000000
<DFT>  Uele   =  -41.639960929173  dUele     =   0.008052455745
<DFT>  NormRD =    0.508449839981  Criterion =   0.000000100000

******************* MD= 1  SCF=36 *******************
<Poisson>  Poisson's equation using FFT...
<Set_Hamiltonian>  Hamiltonian matrix for VNA+dVH+Vxc...
<Band>  Solving the eigenvalue problem...
 KGrids1:  -0.43750  -0.31250  -0.18750  -0.06250   0.06250   0.18750   0.31250   0.43750 
 KGrids2:  -0.43750  -0.31250  -0.18750  -0.06250   0.06250   0.18750   0.31250   0.43750 
 KGrids3:  -0.46428  -0.39286  -0.32143  -0.25000  -0.17857  -0.10714  -0.03571   0.03572   0.10714   0.17857   0.25000   0.32143   0.39286   0.46429 
<Band_DFT>  Eigen, time=0.062068
<Band_DFT>  DM, time=0.102598
    1   Sn  MulP   7.0000  7.0000 sum  14.0000
    2   Sn  MulP   7.0000  7.0000 sum  14.0000
    3   Sn  MulP   7.0000  7.0000 sum  14.0000
    4   Sn  MulP   7.0000  7.0000 sum  14.0000
 Sum of MulP: up   =    28.00000 down          =    28.00000
              total=    56.00000 ideal(neutral)=    56.00000
<DFT>  Total Spin Moment (muB) =  0.000000000000
<DFT>  Mixing_weight= 0.030000000000
<DFT>  Uele   =  -41.647897495425  dUele     =   0.007936566252
<DFT>  NormRD =    0.501835548228  Criterion =   0.000000100000

******************* MD= 1  SCF=37 *******************
<Poisson>  Poisson's equation using FFT...
<Set_Hamiltonian>  Hamiltonian matrix for VNA+dVH+Vxc...
<Band>  Solving the eigenvalue problem...
 KGrids1:  -0.43750  -0.31250  -0.18750  -0.06250   0.06250   0.18750   0.31250   0.43750 
 KGrids2:  -0.43750  -0.31250  -0.18750  -0.06250   0.06250   0.18750   0.31250   0.43750 
 KGrids3:  -0.46428  -0.39286  -0.32143  -0.25000  -0.17857  -0.10714  -0.03571   0.03572   0.10714   0.17857   0.25000   0.32143   0.39286   0.46429 
<Band_DFT>  Eigen, time=0.059225
<Band_DFT>  DM, time=0.100768
    1   Sn  MulP   7.0000  7.0000 sum  14.0000
    2   Sn  MulP   7.0000  7.0000 sum  14.0000
    3   Sn  MulP   7.0000  7.0000 sum  14.0000
    4   Sn  MulP   7.0000  7.0000 sum  14.0000
 Sum of MulP: up   =    28.00000 down          =    28.00000
              total=    56.00000 ideal(neutral)=    56.00000
<DFT>  Total Spin Moment (muB) =  0.000000000000
<DFT>  Mixing_weight= 0.030000000000
<DFT>  Uele   =  -41.655719918168  dUele     =   0.007822422743
<DFT>  NormRD =    0.495316549570  Criterion =   0.000000100000

******************* MD= 1  SCF=38 *******************
<Poisson>  Poisson's equation using FFT...
<Set_Hamiltonian>  Hamiltonian matrix for VNA+dVH+Vxc...
<Band>  Solving the eigenvalue problem...
 KGrids1:  -0.43750  -0.31250  -0.18750  -0.06250   0.06250   0.18750   0.31250   0.43750 
 KGrids2:  -0.43750  -0.31250  -0.18750  -0.06250   0.06250   0.18750   0.31250   0.43750 
 KGrids3:  -0.46428  -0.39286  -0.32143  -0.25000  -0.17857  -0.10714  -0.03571   0.03572   0.10714   0.17857   0.25000   0.32143   0.39286   0.46429 
<Band_DFT>  Eigen, time=0.061251
<Band_DFT>  DM, time=0.101088
    1   Sn  MulP   7.0000  7.0000 sum  14.0000
    2   Sn  MulP   7.0000  7.0000 sum  14.0000
    3   Sn  MulP   7.0000  7.0000 sum  14.0000
    4   Sn  MulP   7.0000  7.0000 sum  14.0000
 Sum of MulP: up   =    28.00000 down          =    28.00000
              total=    56.00000 ideal(neutral)=    56.00000
<DFT>  Total Spin Moment (muB) =  0.000000000000
<DFT>  Mixing_weight= 0.030000000000
<DFT>  Uele   =  -41.663429915752  dUele     =   0.007709997584
<DFT>  NormRD =    0.488891272082  Criterion =   0.000000100000

******************* MD= 1  SCF=39 *******************
<Poisson>  Poisson's equation using FFT...
<Set_Hamiltonian>  Hamiltonian matrix for VNA+dVH+Vxc...
<Band>  Solving the eigenvalue problem...
 KGrids1:  -0.43750  -0.31250  -0.18750  -0.06250   0.06250   0.18750   0.31250   0.43750 
 KGrids2:  -0.43750  -0.31250  -0.18750  -0.06250   0.06250   0.18750   0.31250   0.43750 
 KGrids3:  -0.46428  -0.39286  -0.32143  -0.25000  -0.17857  -0.10714  -0.03571   0.03572   0.10714   0.17857   0.25000   0.32143   0.39286   0.46429 
<Band_DFT>  Eigen, time=0.060365
<Band_DFT>  DM, time=0.100866
    1   Sn  MulP   7.0000  7.0000 sum  14.0000
    2   Sn  MulP   7.0000  7.0000 sum  14.0000
    3   Sn  MulP   7.0000  7.0000 sum  14.0000
    4   Sn  MulP   7.0000  7.0000 sum  14.0000
 Sum of MulP: up   =    28.00000 down          =    28.00000
              total=    56.00000 ideal(neutral)=    56.00000
<DFT>  Total Spin Moment (muB) =  0.000000000000
<DFT>  Mixing_weight= 0.030000000000
<DFT>  Uele   =  -41.671029179366  dUele     =   0.007599263614
<DFT>  NormRD =    0.482558173786  Criterion =   0.000000100000

******************* MD= 1  SCF=40 *******************
<Poisson>  Poisson's equation using FFT...
<Set_Hamiltonian>  Hamiltonian matrix for VNA+dVH+Vxc...
<Band>  Solving the eigenvalue problem...
 KGrids1:  -0.43750  -0.31250  -0.18750  -0.06250   0.06250   0.18750   0.31250   0.43750 
 KGrids2:  -0.43750  -0.31250  -0.18750  -0.06250   0.06250   0.18750   0.31250   0.43750 
 KGrids3:  -0.46428  -0.39286  -0.32143  -0.25000  -0.17857  -0.10714  -0.03571   0.03572   0.10714   0.17857   0.25000   0.32143   0.39286   0.46429 
<Band_DFT>  Eigen, time=0.062478
<Band_DFT>  DM, time=0.101013
    1   Sn  MulP   7.0000  7.0000 sum  14.0000
    2   Sn  MulP   7.0000  7.0000 sum  14.0000
    3   Sn  MulP   7.0000  7.0000 sum  14.0000
    4   Sn  MulP   7.0000  7.0000 sum  14.0000
 Sum of MulP: up   =    28.00000 down          =    28.00000
              total=    56.00000 ideal(neutral)=    56.00000
<DFT>  Total Spin Moment (muB) =  0.000000000000
<DFT>  Mixing_weight= 0.030000000000
<DFT>  Uele   =  -41.678519373483  dUele     =   0.007490194117
<DFT>  NormRD =    0.476315742023  Criterion =   0.000000100000

******************* MD= 1  SCF=41 *******************
<Poisson>  Poisson's equation using FFT...
<Set_Hamiltonian>  Hamiltonian matrix for VNA+dVH+Vxc...
<Band>  Solving the eigenvalue problem...
 KGrids1:  -0.43750  -0.31250  -0.18750  -0.06250   0.06250   0.18750   0.31250   0.43750 
 KGrids2:  -0.43750  -0.31250  -0.18750  -0.06250   0.06250   0.18750   0.31250   0.43750 
 KGrids3:  -0.46428  -0.39286  -0.32143  -0.25000  -0.17857  -0.10714  -0.03571   0.03572   0.10714   0.17857   0.25000   0.32143   0.39286   0.46429 
<Band_DFT>  Eigen, time=0.061235
<Band_DFT>  DM, time=0.101770
    1   Sn  MulP   7.0000  7.0000 sum  14.0000
    2   Sn  MulP   7.0000  7.0000 sum  14.0000
    3   Sn  MulP   7.0000  7.0000 sum  14.0000
    4   Sn  MulP   7.0000  7.0000 sum  14.0000
 Sum of MulP: up   =    28.00000 down          =    28.00000
              total=    56.00000 ideal(neutral)=    56.00000
<DFT>  Total Spin Moment (muB) =  0.000000000000
<DFT>  Mixing_weight= 0.030000000000
<DFT>  Uele   =  -41.685902136309  dUele     =   0.007382762826
<DFT>  NormRD =    0.470162492834  Criterion =   0.000000100000

******************* MD= 1  SCF=42 *******************
<Poisson>  Poisson's equation using FFT...
<Set_Hamiltonian>  Hamiltonian matrix for VNA+dVH+Vxc...
<Band>  Solving the eigenvalue problem...
 KGrids1:  -0.43750  -0.31250  -0.18750  -0.06250   0.06250   0.18750   0.31250   0.43750 
 KGrids2:  -0.43750  -0.31250  -0.18750  -0.06250   0.06250   0.18750   0.31250   0.43750 
 KGrids3:  -0.46428  -0.39286  -0.32143  -0.25000  -0.17857  -0.10714  -0.03571   0.03572   0.10714   0.17857   0.25000   0.32143   0.39286   0.46429 
<Band_DFT>  Eigen, time=0.060308
<Band_DFT>  DM, time=0.101399
    1   Sn  MulP   7.0000  7.0000 sum  14.0000
    2   Sn  MulP   7.0000  7.0000 sum  14.0000
    3   Sn  MulP   7.0000  7.0000 sum  14.0000
    4   Sn  MulP   7.0000  7.0000 sum  14.0000
 Sum of MulP: up   =    28.00000 down          =    28.00000
              total=    56.00000 ideal(neutral)=    56.00000
<DFT>  Total Spin Moment (muB) =  0.000000000000
<DFT>  Mixing_weight= 0.030000000000
<DFT>  Uele   =  -41.693179080220  dUele     =   0.007276943911
<DFT>  NormRD =    0.464096970404  Criterion =   0.000000100000

******************* MD= 1  SCF=43 *******************
<Poisson>  Poisson's equation using FFT...
<Set_Hamiltonian>  Hamiltonian matrix for VNA+dVH+Vxc...
<Band>  Solving the eigenvalue problem...
 KGrids1:  -0.43750  -0.31250  -0.18750  -0.06250   0.06250   0.18750   0.31250   0.43750 
 KGrids2:  -0.43750  -0.31250  -0.18750  -0.06250   0.06250   0.18750   0.31250   0.43750 
 KGrids3:  -0.46428  -0.39286  -0.32143  -0.25000  -0.17857  -0.10714  -0.03571   0.03572   0.10714   0.17857   0.25000   0.32143   0.39286   0.46429 
<Band_DFT>  Eigen, time=0.060387
<Band_DFT>  DM, time=0.101459
    1   Sn  MulP   7.0000  7.0000 sum  14.0000
    2   Sn  MulP   7.0000  7.0000 sum  14.0000
    3   Sn  MulP   7.0000  7.0000 sum  14.0000
    4   Sn  MulP   7.0000  7.0000 sum  14.0000
 Sum of MulP: up   =    28.00000 down          =    28.00000
              total=    56.00000 ideal(neutral)=    56.00000
<DFT>  Total Spin Moment (muB) =  0.000000000000
<DFT>  Mixing_weight= 0.030000000000
<DFT>  Uele   =  -41.700351792192  dUele     =   0.007172711972
<DFT>  NormRD =    0.458117746325  Criterion =   0.000000100000

******************* MD= 1  SCF=44 *******************
<Poisson>  Poisson's equation using FFT...
<Set_Hamiltonian>  Hamiltonian matrix for VNA+dVH+Vxc...
<Band>  Solving the eigenvalue problem...
 KGrids1:  -0.43750  -0.31250  -0.18750  -0.06250   0.06250   0.18750   0.31250   0.43750 
 KGrids2:  -0.43750  -0.31250  -0.18750  -0.06250   0.06250   0.18750   0.31250   0.43750 
 KGrids3:  -0.46428  -0.39286  -0.32143  -0.25000  -0.17857  -0.10714  -0.03571   0.03572   0.10714   0.17857   0.25000   0.32143   0.39286   0.46429 
<Band_DFT>  Eigen, time=0.060661
<Band_DFT>  DM, time=0.101176
    1   Sn  MulP   7.0000  7.0000 sum  14.0000
    2   Sn  MulP   7.0000  7.0000 sum  14.0000
    3   Sn  MulP   7.0000  7.0000 sum  14.0000
    4   Sn  MulP   7.0000  7.0000 sum  14.0000
 Sum of MulP: up   =    28.00000 down          =    28.00000
              total=    56.00000 ideal(neutral)=    56.00000
<DFT>  Total Spin Moment (muB) =  0.000000000000
<DFT>  Mixing_weight= 0.030000000000
<DFT>  Uele   =  -41.707421834219  dUele     =   0.007070042027
<DFT>  NormRD =    0.452223419191  Criterion =   0.000000100000

******************* MD= 1  SCF=45 *******************
<Poisson>  Poisson's equation using FFT...
<Set_Hamiltonian>  Hamiltonian matrix for VNA+dVH+Vxc...
<Band>  Solving the eigenvalue problem...
 KGrids1:  -0.43750  -0.31250  -0.18750  -0.06250   0.06250   0.18750   0.31250   0.43750 
 KGrids2:  -0.43750  -0.31250  -0.18750  -0.06250   0.06250   0.18750   0.31250   0.43750 
 KGrids3:  -0.46428  -0.39286  -0.32143  -0.25000  -0.17857  -0.10714  -0.03571   0.03572   0.10714   0.17857   0.25000   0.32143   0.39286   0.46429 
<Band_DFT>  Eigen, time=0.059844
<Band_DFT>  DM, time=0.100404
    1   Sn  MulP   7.0000  7.0000 sum  14.0000
    2   Sn  MulP   7.0000  7.0000 sum  14.0000
    3   Sn  MulP   7.0000  7.0000 sum  14.0000
    4   Sn  MulP   7.0000  7.0000 sum  14.0000
 Sum of MulP: up   =    28.00000 down          =    28.00000
              total=    56.00000 ideal(neutral)=    56.00000
<DFT>  Total Spin Moment (muB) =  0.000000000000
<DFT>  Mixing_weight= 0.030000000000
<DFT>  Uele   =  -41.714390743736  dUele     =   0.006968909517
<DFT>  NormRD =    0.446412613839  Criterion =   0.000000100000

******************* MD= 1  SCF=46 *******************
<Poisson>  Poisson's equation using FFT...
<Set_Hamiltonian>  Hamiltonian matrix for VNA+dVH+Vxc...
<Band>  Solving the eigenvalue problem...
 KGrids1:  -0.43750  -0.31250  -0.18750  -0.06250   0.06250   0.18750   0.31250   0.43750 
 KGrids2:  -0.43750  -0.31250  -0.18750  -0.06250   0.06250   0.18750   0.31250   0.43750 
 KGrids3:  -0.46428  -0.39286  -0.32143  -0.25000  -0.17857  -0.10714  -0.03571   0.03572   0.10714   0.17857   0.25000   0.32143   0.39286   0.46429 
<Band_DFT>  Eigen, time=0.059996
<Band_DFT>  DM, time=0.104137
    1   Sn  MulP   7.0000  7.0000 sum  14.0000
    2   Sn  MulP   7.0000  7.0000 sum  14.0000
    3   Sn  MulP   7.0000  7.0000 sum  14.0000
    4   Sn  MulP   7.0000  7.0000 sum  14.0000
 Sum of MulP: up   =    28.00000 down          =    28.00000
              total=    56.00000 ideal(neutral)=    56.00000
<DFT>  Total Spin Moment (muB) =  0.000000000000
<DFT>  Mixing_weight= 0.030000000000
<DFT>  Uele   =  -41.721260034020  dUele     =   0.006869290284
<DFT>  NormRD =    0.440683980869  Criterion =   0.000000100000

******************* MD= 1  SCF=47 *******************
<Poisson>  Poisson's equation using FFT...
<Set_Hamiltonian>  Hamiltonian matrix for VNA+dVH+Vxc...
<Band>  Solving the eigenvalue problem...
 KGrids1:  -0.43750  -0.31250  -0.18750  -0.06250   0.06250   0.18750   0.31250   0.43750 
 KGrids2:  -0.43750  -0.31250  -0.18750  -0.06250   0.06250   0.18750   0.31250   0.43750 
 KGrids3:  -0.46428  -0.39286  -0.32143  -0.25000  -0.17857  -0.10714  -0.03571   0.03572   0.10714   0.17857   0.25000   0.32143   0.39286   0.46429 
<Band_DFT>  Eigen, time=0.059312
<Band_DFT>  DM, time=0.100784
    1   Sn  MulP   7.0000  7.0000 sum  14.0000
    2   Sn  MulP   7.0000  7.0000 sum  14.0000
    3   Sn  MulP   7.0000  7.0000 sum  14.0000
    4   Sn  MulP   7.0000  7.0000 sum  14.0000
 Sum of MulP: up   =    28.00000 down          =    28.00000
              total=    56.00000 ideal(neutral)=    56.00000
<DFT>  Total Spin Moment (muB) =  0.000000000000
<DFT>  Mixing_weight= 0.030000000000
<DFT>  Uele   =  -41.728031194587  dUele     =   0.006771160567
<DFT>  NormRD =    0.435036196156  Criterion =   0.000000100000

******************* MD= 1  SCF=48 *******************
<Poisson>  Poisson's equation using FFT...
<Set_Hamiltonian>  Hamiltonian matrix for VNA+dVH+Vxc...
<Band>  Solving the eigenvalue problem...
 KGrids1:  -0.43750  -0.31250  -0.18750  -0.06250   0.06250   0.18750   0.31250   0.43750 
 KGrids2:  -0.43750  -0.31250  -0.18750  -0.06250   0.06250   0.18750   0.31250   0.43750 
 KGrids3:  -0.46428  -0.39286  -0.32143  -0.25000  -0.17857  -0.10714  -0.03571   0.03572   0.10714   0.17857   0.25000   0.32143   0.39286   0.46429 
<Band_DFT>  Eigen, time=0.059782
<Band_DFT>  DM, time=0.101047
    1   Sn  MulP   7.0000  7.0000 sum  14.0000
    2   Sn  MulP   7.0000  7.0000 sum  14.0000
    3   Sn  MulP   7.0000  7.0000 sum  14.0000
    4   Sn  MulP   7.0000  7.0000 sum  14.0000
 Sum of MulP: up   =    28.00000 down          =    28.00000
              total=    56.00000 ideal(neutral)=    56.00000
<DFT>  Total Spin Moment (muB) =  0.000000000000
<DFT>  Mixing_weight= 0.030000000000
<DFT>  Uele   =  -41.734705691594  dUele     =   0.006674497007
<DFT>  NormRD =    0.429467960115  Criterion =   0.000000100000

******************* MD= 1  SCF=49 *******************
<Poisson>  Poisson's equation using FFT...
<Set_Hamiltonian>  Hamiltonian matrix for VNA+dVH+Vxc...
<Band>  Solving the eigenvalue problem...
 KGrids1:  -0.43750  -0.31250  -0.18750  -0.06250   0.06250   0.18750   0.31250   0.43750 
 KGrids2:  -0.43750  -0.31250  -0.18750  -0.06250   0.06250   0.18750   0.31250   0.43750 
 KGrids3:  -0.46428  -0.39286  -0.32143  -0.25000  -0.17857  -0.10714  -0.03571   0.03572   0.10714   0.17857   0.25000   0.32143   0.39286   0.46429 
<Band_DFT>  Eigen, time=0.061079
<Band_DFT>  DM, time=0.100158
    1   Sn  MulP   7.0000  7.0000 sum  14.0000
    2   Sn  MulP   7.0000  7.0000 sum  14.0000
    3   Sn  MulP   7.0000  7.0000 sum  14.0000
    4   Sn  MulP   7.0000  7.0000 sum  14.0000
 Sum of MulP: up   =    28.00000 down          =    28.00000
              total=    56.00000 ideal(neutral)=    56.00000
<DFT>  Total Spin Moment (muB) =  0.000000000000
<DFT>  Mixing_weight= 0.030000000000
<DFT>  Uele   =  -41.741284968218  dUele     =   0.006579276624
<DFT>  NormRD =    0.423977997450  Criterion =   0.000000100000

******************* MD= 1  SCF=50 *******************
<Poisson>  Poisson's equation using FFT...
<Set_Hamiltonian>  Hamiltonian matrix for VNA+dVH+Vxc...
<Band>  Solving the eigenvalue problem...
 KGrids1:  -0.43750  -0.31250  -0.18750  -0.06250   0.06250   0.18750   0.31250   0.43750 
 KGrids2:  -0.43750  -0.31250  -0.18750  -0.06250   0.06250   0.18750   0.31250   0.43750 
 KGrids3:  -0.46428  -0.39286  -0.32143  -0.25000  -0.17857  -0.10714  -0.03571   0.03572   0.10714   0.17857   0.25000   0.32143   0.39286   0.46429 
<Band_DFT>  Eigen, time=0.060049
<Band_DFT>  DM, time=0.101242
    1   Sn  MulP   7.0000  7.0000 sum  14.0000
    2   Sn  MulP   7.0000  7.0000 sum  14.0000
    3   Sn  MulP   7.0000  7.0000 sum  14.0000
    4   Sn  MulP   7.0000  7.0000 sum  14.0000
 Sum of MulP: up   =    28.00000 down          =    28.00000
              total=    56.00000 ideal(neutral)=    56.00000
<DFT>  Total Spin Moment (muB) =  0.000000000000
<DFT>  Mixing_weight= 0.030000000000
<DFT>  Uele   =  -41.747770445037  dUele     =   0.006485476819
<DFT>  NormRD =    0.418565056455  Criterion =   0.000000100000

******************* MD= 1  SCF=51 *******************
<Poisson>  Poisson's equation using FFT...
<Set_Hamiltonian>  Hamiltonian matrix for VNA+dVH+Vxc...
<Band>  Solving the eigenvalue problem...
 KGrids1:  -0.43750  -0.31250  -0.18750  -0.06250   0.06250   0.18750   0.31250   0.43750 
 KGrids2:  -0.43750  -0.31250  -0.18750  -0.06250   0.06250   0.18750   0.31250   0.43750 
 KGrids3:  -0.46428  -0.39286  -0.32143  -0.25000  -0.17857  -0.10714  -0.03571   0.03572   0.10714   0.17857   0.25000   0.32143   0.39286   0.46429 
<Band_DFT>  Eigen, time=0.059866
<Band_DFT>  DM, time=0.101892
    1   Sn  MulP   7.0000  7.0000 sum  14.0000
    2   Sn  MulP   7.0000  7.0000 sum  14.0000
    3   Sn  MulP   7.0000  7.0000 sum  14.0000
    4   Sn  MulP   7.0000  7.0000 sum  14.0000
 Sum of MulP: up   =    28.00000 down          =    28.00000
              total=    56.00000 ideal(neutral)=    56.00000
<DFT>  Total Spin Moment (muB) =  0.000000000000
<DFT>  Mixing_weight= 0.030000000000
<DFT>  Uele   =  -41.754163520407  dUele     =   0.006393075370
<DFT>  NormRD =    0.413227908578  Criterion =   0.000000100000

******************* MD= 1  SCF=52 *******************
<Poisson>  Poisson's equation using FFT...
<Set_Hamiltonian>  Hamiltonian matrix for VNA+dVH+Vxc...
<Band>  Solving the eigenvalue problem...
 KGrids1:  -0.43750  -0.31250  -0.18750  -0.06250   0.06250   0.18750   0.31250   0.43750 
 KGrids2:  -0.43750  -0.31250  -0.18750  -0.06250   0.06250   0.18750   0.31250   0.43750 
 KGrids3:  -0.46428  -0.39286  -0.32143  -0.25000  -0.17857  -0.10714  -0.03571   0.03572   0.10714   0.17857   0.25000   0.32143   0.39286   0.46429 
<Band_DFT>  Eigen, time=0.059727
<Band_DFT>  DM, time=0.100345
    1   Sn  MulP   7.0000  7.0000 sum  14.0000
    2   Sn  MulP   7.0000  7.0000 sum  14.0000
    3   Sn  MulP   7.0000  7.0000 sum  14.0000
    4   Sn  MulP   7.0000  7.0000 sum  14.0000
 Sum of MulP: up   =    28.00000 down          =    28.00000
              total=    56.00000 ideal(neutral)=    56.00000
<DFT>  Total Spin Moment (muB) =  0.000000000000
<DFT>  Mixing_weight= 0.030000000000
<DFT>  Uele   =  -41.760465570821  dUele     =   0.006302050414
<DFT>  NormRD =    0.407965347871  Criterion =   0.000000100000

******************* MD= 1  SCF=53 *******************
<Poisson>  Poisson's equation using FFT...
<Set_Hamiltonian>  Hamiltonian matrix for VNA+dVH+Vxc...
<Band>  Solving the eigenvalue problem...
 KGrids1:  -0.43750  -0.31250  -0.18750  -0.06250   0.06250   0.18750   0.31250   0.43750 
 KGrids2:  -0.43750  -0.31250  -0.18750  -0.06250   0.06250   0.18750   0.31250   0.43750 
 KGrids3:  -0.46428  -0.39286  -0.32143  -0.25000  -0.17857  -0.10714  -0.03571   0.03572   0.10714   0.17857   0.25000   0.32143   0.39286   0.46429 
<Band_DFT>  Eigen, time=0.058394
<Band_DFT>  DM, time=0.100831
    1   Sn  MulP   7.0000  7.0000 sum  14.0000
    2   Sn  MulP   7.0000  7.0000 sum  14.0000
    3   Sn  MulP   7.0000  7.0000 sum  14.0000
    4   Sn  MulP   7.0000  7.0000 sum  14.0000
 Sum of MulP: up   =    28.00000 down          =    28.00000
              total=    56.00000 ideal(neutral)=    56.00000
<DFT>  Total Spin Moment (muB) =  0.000000000000
<DFT>  Mixing_weight= 0.030000000000
<DFT>  Uele   =  -41.766677951272  dUele     =   0.006212380451
<DFT>  NormRD =    0.402776190587  Criterion =   0.000000100000

******************* MD= 1  SCF=54 *******************
<Poisson>  Poisson's equation using FFT...
<Set_Hamiltonian>  Hamiltonian matrix for VNA+dVH+Vxc...
<Band>  Solving the eigenvalue problem...
 KGrids1:  -0.43750  -0.31250  -0.18750  -0.06250   0.06250   0.18750   0.31250   0.43750 
 KGrids2:  -0.43750  -0.31250  -0.18750  -0.06250   0.06250   0.18750   0.31250   0.43750 
 KGrids3:  -0.46428  -0.39286  -0.32143  -0.25000  -0.17857  -0.10714  -0.03571   0.03572   0.10714   0.17857   0.25000   0.32143   0.39286   0.46429 
<Band_DFT>  Eigen, time=0.064698
<Band_DFT>  DM, time=0.101928
    1   Sn  MulP   7.0000  7.0000 sum  14.0000
    2   Sn  MulP   7.0000  7.0000 sum  14.0000
    3   Sn  MulP   7.0000  7.0000 sum  14.0000
    4   Sn  MulP   7.0000  7.0000 sum  14.0000
 Sum of MulP: up   =    28.00000 down          =    28.00000
              total=    56.00000 ideal(neutral)=    56.00000
<DFT>  Total Spin Moment (muB) =  0.000000000000
<DFT>  Mixing_weight= 0.030000000000
<DFT>  Uele   =  -41.772801995608  dUele     =   0.006124044335
<DFT>  NormRD =    0.397659274729  Criterion =   0.000000100000

******************* MD= 1  SCF=55 *******************
<Poisson>  Poisson's equation using FFT...
<Set_Hamiltonian>  Hamiltonian matrix for VNA+dVH+Vxc...
<Band>  Solving the eigenvalue problem...
 KGrids1:  -0.43750  -0.31250  -0.18750  -0.06250   0.06250   0.18750   0.31250   0.43750 
 KGrids2:  -0.43750  -0.31250  -0.18750  -0.06250   0.06250   0.18750   0.31250   0.43750 
 KGrids3:  -0.46428  -0.39286  -0.32143  -0.25000  -0.17857  -0.10714  -0.03571   0.03572   0.10714   0.17857   0.25000   0.32143   0.39286   0.46429 
<Band_DFT>  Eigen, time=0.060183
<Band_DFT>  DM, time=0.100379
    1   Sn  MulP   7.0000  7.0000 sum  14.0000
    2   Sn  MulP   7.0000  7.0000 sum  14.0000
    3   Sn  MulP   7.0000  7.0000 sum  14.0000
    4   Sn  MulP   7.0000  7.0000 sum  14.0000
 Sum of MulP: up   =    28.00000 down          =    28.00000
              total=    56.00000 ideal(neutral)=    56.00000
<DFT>  Total Spin Moment (muB) =  0.000000000000
<DFT>  Mixing_weight= 0.030000000000
<DFT>  Uele   =  -41.778839016877  dUele     =   0.006037021269
<DFT>  NormRD =    0.392613459520  Criterion =   0.000000100000

******************* MD= 1  SCF=56 *******************
<Poisson>  Poisson's equation using FFT...
<Set_Hamiltonian>  Hamiltonian matrix for VNA+dVH+Vxc...
<Band>  Solving the eigenvalue problem...
 KGrids1:  -0.43750  -0.31250  -0.18750  -0.06250   0.06250   0.18750   0.31250   0.43750 
 KGrids2:  -0.43750  -0.31250  -0.18750  -0.06250   0.06250   0.18750   0.31250   0.43750 
 KGrids3:  -0.46428  -0.39286  -0.32143  -0.25000  -0.17857  -0.10714  -0.03571   0.03572   0.10714   0.17857   0.25000   0.32143   0.39286   0.46429 
<Band_DFT>  Eigen, time=0.059615
<Band_DFT>  DM, time=0.100435
    1   Sn  MulP   7.0000  7.0000 sum  14.0000
    2   Sn  MulP   7.0000  7.0000 sum  14.0000
    3   Sn  MulP   7.0000  7.0000 sum  14.0000
    4   Sn  MulP   7.0000  7.0000 sum  14.0000
 Sum of MulP: up   =    28.00000 down          =    28.00000
              total=    56.00000 ideal(neutral)=    56.00000
<DFT>  Total Spin Moment (muB) =  0.000000000000
<DFT>  Mixing_weight= 0.030000000000
<DFT>  Uele   =  -41.784790307669  dUele     =   0.005951290793
<DFT>  NormRD =    0.387637625026  Criterion =   0.000000100000

******************* MD= 1  SCF=57 *******************
<Poisson>  Poisson's equation using FFT...
<Set_Hamiltonian>  Hamiltonian matrix for VNA+dVH+Vxc...
<Band>  Solving the eigenvalue problem...
 KGrids1:  -0.43750  -0.31250  -0.18750  -0.06250   0.06250   0.18750   0.31250   0.43750 
 KGrids2:  -0.43750  -0.31250  -0.18750  -0.06250   0.06250   0.18750   0.31250   0.43750 
 KGrids3:  -0.46428  -0.39286  -0.32143  -0.25000  -0.17857  -0.10714  -0.03571   0.03572   0.10714   0.17857   0.25000   0.32143   0.39286   0.46429 
<Band_DFT>  Eigen, time=0.059699
<Band_DFT>  DM, time=0.100806
    1   Sn  MulP   7.0000  7.0000 sum  14.0000
    2   Sn  MulP   7.0000  7.0000 sum  14.0000
    3   Sn  MulP   7.0000  7.0000 sum  14.0000
    4   Sn  MulP   7.0000  7.0000 sum  14.0000
 Sum of MulP: up   =    28.00000 down          =    28.00000
              total=    56.00000 ideal(neutral)=    56.00000
<DFT>  Total Spin Moment (muB) =  0.000000000000
<DFT>  Mixing_weight= 0.030000000000
<DFT>  Uele   =  -41.790657140456  dUele     =   0.005866832787
<DFT>  NormRD =    0.382730671669  Criterion =   0.000000100000

******************* MD= 1  SCF=58 *******************
<Poisson>  Poisson's equation using FFT...
<Set_Hamiltonian>  Hamiltonian matrix for VNA+dVH+Vxc...
<Band>  Solving the eigenvalue problem...
 KGrids1:  -0.43750  -0.31250  -0.18750  -0.06250   0.06250   0.18750   0.31250   0.43750 
 KGrids2:  -0.43750  -0.31250  -0.18750  -0.06250   0.06250   0.18750   0.31250   0.43750 
 KGrids3:  -0.46428  -0.39286  -0.32143  -0.25000  -0.17857  -0.10714  -0.03571   0.03572   0.10714   0.17857   0.25000   0.32143   0.39286   0.46429 
<Band_DFT>  Eigen, time=0.060997
<Band_DFT>  DM, time=0.100555
    1   Sn  MulP   7.0000  7.0000 sum  14.0000
    2   Sn  MulP   7.0000  7.0000 sum  14.0000
    3   Sn  MulP   7.0000  7.0000 sum  14.0000
    4   Sn  MulP   7.0000  7.0000 sum  14.0000
 Sum of MulP: up   =    28.00000 down          =    28.00000
              total=    56.00000 ideal(neutral)=    56.00000
<DFT>  Total Spin Moment (muB) =  0.000000000000
<DFT>  Mixing_weight= 0.030000000000
<DFT>  Uele   =  -41.796440767910  dUele     =   0.005783627454
<DFT>  NormRD =    0.377891519832  Criterion =   0.000000100000

******************* MD= 1  SCF=59 *******************
<Poisson>  Poisson's equation using FFT...
<Set_Hamiltonian>  Hamiltonian matrix for VNA+dVH+Vxc...
<Band>  Solving the eigenvalue problem...
 KGrids1:  -0.43750  -0.31250  -0.18750  -0.06250   0.06250   0.18750   0.31250   0.43750 
 KGrids2:  -0.43750  -0.31250  -0.18750  -0.06250   0.06250   0.18750   0.31250   0.43750 
 KGrids3:  -0.46428  -0.39286  -0.32143  -0.25000  -0.17857  -0.10714  -0.03571   0.03572   0.10714   0.17857   0.25000   0.32143   0.39286   0.46429 
<Band_DFT>  Eigen, time=0.059957
<Band_DFT>  DM, time=0.100788
    1   Sn  MulP   7.0000  7.0000 sum  14.0000
    2   Sn  MulP   7.0000  7.0000 sum  14.0000
    3   Sn  MulP   7.0000  7.0000 sum  14.0000
    4   Sn  MulP   7.0000  7.0000 sum  14.0000
 Sum of MulP: up   =    28.00000 down          =    28.00000
              total=    56.00000 ideal(neutral)=    56.00000
<DFT>  Total Spin Moment (muB) =  0.000000000000
<DFT>  Mixing_weight= 0.030000000000
<DFT>  Uele   =  -41.802142423239  dUele     =   0.005701655328
<DFT>  NormRD =    0.373119109428  Criterion =   0.000000100000

[...]
<DFT>  NormRD =    0.381303591797  Criterion =   0.000000100000

******************* MD= 1  SCF=64 *******************
<Poisson>  Poisson's equation using FFT...
<Set_Hamiltonian>  Hamiltonian matrix for VNA+dVH+Vxc...
<Band>  Solving the eigenvalue problem...
 KGrids1:  -0.43750  -0.31250  -0.18750  -0.06250   0.06250   0.18750   0.31250   0.43750 
 KGrids2:  -0.43750  -0.31250  -0.18750  -0.06250   0.06250   0.18750   0.31250   0.43750 
 KGrids3:  -0.46428  -0.39286  -0.32143  -0.25000  -0.17857  -0.10714  -0.03571   0.03572   0.10714   0.17857   0.25000   0.32143   0.39286   0.46429 
<Band_DFT>  Eigen, time=0.059894
<Band_DFT>  DM, time=0.102430
    1   Sn  MulP   6.9997  6.9997 sum  13.9995
    2   Sn  MulP   7.0003  7.0003 sum  14.0005
    3   Sn  MulP   7.0003  7.0003 sum  14.0005
    4   Sn  MulP   6.9997  6.9997 sum  13.9995
 Sum of MulP: up   =    28.00000 down          =    28.00000
              total=    56.00000 ideal(neutral)=    56.00000
<DFT>  Total Spin Moment (muB) =  0.000000000000
<DFT>  Mixing_weight= 0.003000000000
<DFT>  Uele   =  -42.195159322374  dUele     =   0.375220862889
<DFT>  NormRD =    0.019747706021  Criterion =   0.000000100000

******************* MD= 1  SCF=65 *******************
<Poisson>  Poisson's equation using FFT...
<Set_Hamiltonian>  Hamiltonian matrix for VNA+dVH+Vxc...
<Band>  Solving the eigenvalue problem...
 KGrids1:  -0.43750  -0.31250  -0.18750  -0.06250   0.06250   0.18750   0.31250   0.43750 
 KGrids2:  -0.43750  -0.31250  -0.18750  -0.06250   0.06250   0.18750   0.31250   0.43750 
 KGrids3:  -0.46428  -0.39286  -0.32143  -0.25000  -0.17857  -0.10714  -0.03571   0.03572   0.10714   0.17857   0.25000   0.32143   0.39286   0.46429 
<Band_DFT>  Eigen, time=0.059377
<Band_DFT>  DM, time=0.101307
    1   Sn  MulP   7.0001  7.0001 sum  14.0002
    2   Sn  MulP   6.9999  6.9999 sum  13.9998
    3   Sn  MulP   6.9999  6.9999 sum  13.9998
    4   Sn  MulP   7.0001  7.0001 sum  14.0002
 Sum of MulP: up   =    28.00000 down          =    28.00000
              total=    56.00000 ideal(neutral)=    56.00000
<DFT>  Total Spin Moment (muB) =  0.000000000000
<DFT>  Mixing_weight= 0.003000000000
<DFT>  Uele   =  -42.267490352240  dUele     =   0.072331029866
<DFT>  NormRD =    0.050196128546  Criterion =   0.000000100000

******************* MD= 1  SCF=66 *******************
<Poisson>  Poisson's equation using FFT...
<Set_Hamiltonian>  Hamiltonian matrix for VNA+dVH+Vxc...
<Band>  Solving the eigenvalue problem...
 KGrids1:  -0.43750  -0.31250  -0.18750  -0.06250   0.06250   0.18750   0.31250   0.43750 
 KGrids2:  -0.43750  -0.31250  -0.18750  -0.06250   0.06250   0.18750   0.31250   0.43750 
 KGrids3:  -0.46428  -0.39286  -0.32143  -0.25000  -0.17857  -0.10714  -0.03571   0.03572   0.10714   0.17857   0.25000   0.32143   0.39286   0.46429 
<Band_DFT>  Eigen, time=0.060367
<Band_DFT>  DM, time=0.101678
    1   Sn  MulP   7.0000  7.0000 sum  14.0000
    2   Sn  MulP   7.0000  7.0000 sum  14.0000
    3   Sn  MulP   7.0000  7.0000 sum  14.0000
    4   Sn  MulP   7.0000  7.0000 sum  14.0000
 Sum of MulP: up   =    28.00000 down          =    28.00000
              total=    56.00000 ideal(neutral)=    56.00000
<DFT>  Total Spin Moment (muB) =  0.000000000000
<DFT>  Mixing_weight= 0.003000000000
<DFT>  Uele   =  -42.239419799914  dUele     =   0.028070552326
<DFT>  NormRD =    0.022706740231  Criterion =   0.000000100000

******************* MD= 1  SCF=67 *******************
<Poisson>  Poisson's equation using FFT...
<Set_Hamiltonian>  Hamiltonian matrix for VNA+dVH+Vxc...
<Band>  Solving the eigenvalue problem...
 KGrids1:  -0.43750  -0.31250  -0.18750  -0.06250   0.06250   0.18750   0.31250   0.43750 
 KGrids2:  -0.43750  -0.31250  -0.18750  -0.06250   0.06250   0.18750   0.31250   0.43750 
 KGrids3:  -0.46428  -0.39286  -0.32143  -0.25000  -0.17857  -0.10714  -0.03571   0.03572   0.10714   0.17857   0.25000   0.32143   0.39286   0.46429 
<Band_DFT>  Eigen, time=0.061020
<Band_DFT>  DM, time=0.102126
    1   Sn  MulP   7.0000  7.0000 sum  14.0000
    2   Sn  MulP   7.0000  7.0000 sum  14.0000
    3   Sn  MulP   7.0000  7.0000 sum  14.0000
    4   Sn  MulP   7.0000  7.0000 sum  14.0000
 Sum of MulP: up   =    28.00000 down          =    28.00000
              total=    56.00000 ideal(neutral)=    56.00000
<DFT>  Total Spin Moment (muB) =  0.000000000000
<DFT>  Mixing_weight= 0.003000000000
<DFT>  Uele   =  -42.221240947566  dUele     =   0.018178852348
<DFT>  NormRD =    0.005289751739  Criterion =   0.000000100000

******************* MD= 1  SCF=68 *******************
<Poisson>  Poisson's equation using FFT...
<Set_Hamiltonian>  Hamiltonian matrix for VNA+dVH+Vxc...
<Band>  Solving the eigenvalue problem...
 KGrids1:  -0.43750  -0.31250  -0.18750  -0.06250   0.06250   0.18750   0.31250   0.43750 
 KGrids2:  -0.43750  -0.31250  -0.18750  -0.06250   0.06250   0.18750   0.31250   0.43750 
 KGrids3:  -0.46428  -0.39286  -0.32143  -0.25000  -0.17857  -0.10714  -0.03571   0.03572   0.10714   0.17857   0.25000   0.32143   0.39286   0.46429 
<Band_DFT>  Eigen, time=0.073750
<Band_DFT>  DM, time=0.100716
    1   Sn  MulP   7.0000  7.0000 sum  14.0000
    2   Sn  MulP   7.0000  7.0000 sum  14.0000
    3   Sn  MulP   7.0000  7.0000 sum  14.0000
    4   Sn  MulP   7.0000  7.0000 sum  14.0000
 Sum of MulP: up   =    28.00000 down          =    28.00000
              total=    56.00000 ideal(neutral)=    56.00000
<DFT>  Total Spin Moment (muB) =  0.000000000000
<DFT>  Mixing_weight= 0.003000000000
<DFT>  Uele   =  -42.215415737723  dUele     =   0.005825209843
<DFT>  NormRD =    0.000290568758  Criterion =   0.000000100000

******************* MD= 1  SCF=69 *******************
<Poisson>  Poisson's equation using FFT...
<Set_Hamiltonian>  Hamiltonian matrix for VNA+dVH+Vxc...
<Band>  Solving the eigenvalue problem...
 KGrids1:  -0.43750  -0.31250  -0.18750  -0.06250   0.06250   0.18750   0.31250   0.43750 
 KGrids2:  -0.43750  -0.31250  -0.18750  -0.06250   0.06250   0.18750   0.31250   0.43750 
 KGrids3:  -0.46428  -0.39286  -0.32143  -0.25000  -0.17857  -0.10714  -0.03571   0.03572   0.10714   0.17857   0.25000   0.32143   0.39286   0.46429 
<Band_DFT>  Eigen, time=0.058774
<Band_DFT>  DM, time=0.100892
    1   Sn  MulP   7.0000  7.0000 sum  14.0000
    2   Sn  MulP   7.0000  7.0000 sum  14.0000
    3   Sn  MulP   7.0000  7.0000 sum  14.0000
    4   Sn  MulP   7.0000  7.0000 sum  14.0000
 Sum of MulP: up   =    28.00000 down          =    28.00000
              total=    56.00000 ideal(neutral)=    56.00000
<DFT>  Total Spin Moment (muB) =  0.000000000000
<DFT>  Mixing_weight= 0.003000000000
<DFT>  Uele   =  -42.215716181185  dUele     =   0.000300443462
<DFT>  NormRD =    0.000001379895  Criterion =   0.000000100000

******************* MD= 1  SCF=70 *******************
<Poisson>  Poisson's equation using FFT...
<Set_Hamiltonian>  Hamiltonian matrix for VNA+dVH+Vxc...
<Band>  Solving the eigenvalue problem...
 KGrids1:  -0.43750  -0.31250  -0.18750  -0.06250   0.06250   0.18750   0.31250   0.43750 
 KGrids2:  -0.43750  -0.31250  -0.18750  -0.06250   0.06250   0.18750   0.31250   0.43750 
 KGrids3:  -0.46428  -0.39286  -0.32143  -0.25000  -0.17857  -0.10714  -0.03571   0.03572   0.10714   0.17857   0.25000   0.32143   0.39286   0.46429 
<Band_DFT>  Eigen, time=0.060122
<Band_DFT>  DM, time=0.100364
    1   Sn  MulP   7.0000  7.0000 sum  14.0000
    2   Sn  MulP   7.0000  7.0000 sum  14.0000
    3   Sn  MulP   7.0000  7.0000 sum  14.0000
    4   Sn  MulP   7.0000  7.0000 sum  14.0000
 Sum of MulP: up   =    28.00000 down          =    28.00000
              total=    56.00000 ideal(neutral)=    56.00000
<DFT>  Total Spin Moment (muB) =  0.000000000000
<DFT>  Mixing_weight= 0.003000000000
<DFT>  Uele   =  -42.215691589070  dUele     =   0.000024592115
<DFT>  NormRD =    0.000024082353  Criterion =   0.000000100000

******************* MD= 1  SCF=71 *******************
<Poisson>  Poisson's equation using FFT...
<Set_Hamiltonian>  Hamiltonian matrix for VNA+dVH+Vxc...
<Band>  Solving the eigenvalue problem...
 KGrids1:  -0.43750  -0.31250  -0.18750  -0.06250   0.06250   0.18750   0.31250   0.43750 
 KGrids2:  -0.43750  -0.31250  -0.18750  -0.06250   0.06250   0.18750   0.31250   0.43750 
 KGrids3:  -0.46428  -0.39286  -0.32143  -0.25000  -0.17857  -0.10714  -0.03571   0.03572   0.10714   0.17857   0.25000   0.32143   0.39286   0.46429 
<Band_DFT>  Eigen, time=0.056471
<Band_DFT>  DM, time=0.100422
    1   Sn  MulP   7.0000  7.0000 sum  14.0000
    2   Sn  MulP   7.0000  7.0000 sum  14.0000
    3   Sn  MulP   7.0000  7.0000 sum  14.0000
    4   Sn  MulP   7.0000  7.0000 sum  14.0000
 Sum of MulP: up   =    28.00000 down          =    28.00000
              total=    56.00000 ideal(neutral)=    56.00000
<DFT>  Total Spin Moment (muB) =  0.000000000000
<DFT>  Mixing_weight= 0.003000000000
<DFT>  Uele   =  -42.215697603750  dUele     =   0.000006014680
<DFT>  NormRD =    0.000018313546  Criterion =   0.000000100000

******************* MD= 1  SCF=72 *******************
<Poisson>  Poisson's equation using FFT...
<Set_Hamiltonian>  Hamiltonian matrix for VNA+dVH+Vxc...
<Band>  Solving the eigenvalue problem...
 KGrids1:  -0.43750  -0.31250  -0.18750  -0.06250   0.06250   0.18750   0.31250   0.43750 
 KGrids2:  -0.43750  -0.31250  -0.18750  -0.06250   0.06250   0.18750   0.31250   0.43750 
 KGrids3:  -0.46428  -0.39286  -0.32143  -0.25000  -0.17857  -0.10714  -0.03571   0.03572   0.10714   0.17857   0.25000   0.32143   0.39286   0.46429 
<Band_DFT>  Eigen, time=0.061895
<Band_DFT>  DM, time=0.100719
    1   Sn  MulP   7.0000  7.0000 sum  14.0000
    2   Sn  MulP   7.0000  7.0000 sum  14.0000
    3   Sn  MulP   7.0000  7.0000 sum  14.0000
    4   Sn  MulP   7.0000  7.0000 sum  14.0000
 Sum of MulP: up   =    28.00000 down          =    28.00000
              total=    56.00000 ideal(neutral)=    56.00000
<DFT>  Total Spin Moment (muB) =  0.000000000000
<DFT>  Mixing_weight= 0.003000000000
<DFT>  Uele   =  -42.215706774720  dUele     =   0.000009170970
<DFT>  NormRD =    0.000009519090  Criterion =   0.000000100000

******************* MD= 1  SCF=73 *******************
<Poisson>  Poisson's equation using FFT...
<Set_Hamiltonian>  Hamiltonian matrix for VNA+dVH+Vxc...
<Band>  Solving the eigenvalue problem...
 KGrids1:  -0.43750  -0.31250  -0.18750  -0.06250   0.06250   0.18750   0.31250   0.43750 
 KGrids2:  -0.43750  -0.31250  -0.18750  -0.06250   0.06250   0.18750   0.31250   0.43750 
 KGrids3:  -0.46428  -0.39286  -0.32143  -0.25000  -0.17857  -0.10714  -0.03571   0.03572   0.10714   0.17857   0.25000   0.32143   0.39286   0.46429 
<Band_DFT>  Eigen, time=0.060165
<Band_DFT>  DM, time=0.101568
    1   Sn  MulP   7.0000  7.0000 sum  14.0000
    2   Sn  MulP   7.0000  7.0000 sum  14.0000
    3   Sn  MulP   7.0000  7.0000 sum  14.0000
    4   Sn  MulP   7.0000  7.0000 sum  14.0000
 Sum of MulP: up   =    28.00000 down          =    28.00000
              total=    56.00000 ideal(neutral)=    56.00000
<DFT>  Total Spin Moment (muB) =  0.000000000000
<DFT>  Mixing_weight= 0.003000000000
<DFT>  Uele   =  -42.215708914852  dUele     =   0.000002140132
<DFT>  NormRD =    0.000007464637  Criterion =   0.000000100000

******************* MD= 1  SCF=74 *******************
<Poisson>  Poisson's equation using FFT...
<Set_Hamiltonian>  Hamiltonian matrix for VNA+dVH+Vxc...
<Band>  Solving the eigenvalue problem...
 KGrids1:  -0.43750  -0.31250  -0.18750  -0.06250   0.06250   0.18750   0.31250   0.43750 
 KGrids2:  -0.43750  -0.31250  -0.18750  -0.06250   0.06250   0.18750   0.31250   0.43750 
 KGrids3:  -0.46428  -0.39286  -0.32143  -0.25000  -0.17857  -0.10714  -0.03571   0.03572   0.10714   0.17857   0.25000   0.32143   0.39286   0.46429 
<Band_DFT>  Eigen, time=0.059120
<Band_DFT>  DM, time=0.099980
    1   Sn  MulP   7.0000  7.0000 sum  14.0000
    2   Sn  MulP   7.0000  7.0000 sum  14.0000
    3   Sn  MulP   7.0000  7.0000 sum  14.0000
    4   Sn  MulP   7.0000  7.0000 sum  14.0000
 Sum of MulP: up   =    28.00000 down          =    28.00000
              total=    56.00000 ideal(neutral)=    56.00000
<DFT>  Total Spin Moment (muB) =  0.000000000000
<DFT>  Mixing_weight= 0.003000000000
<DFT>  Uele   =  -42.215713079812  dUele     =   0.000004164960
<DFT>  NormRD =    0.000003465502  Criterion =   0.000000100000

******************* MD= 1  SCF=75 *******************
<Poisson>  Poisson's equation using FFT...
<Set_Hamiltonian>  Hamiltonian matrix for VNA+dVH+Vxc...
<Band>  Solving the eigenvalue problem...
 KGrids1:  -0.43750  -0.31250  -0.18750  -0.06250   0.06250   0.18750   0.31250   0.43750 
 KGrids2:  -0.43750  -0.31250  -0.18750  -0.06250   0.06250   0.18750   0.31250   0.43750 
 KGrids3:  -0.46428  -0.39286  -0.32143  -0.25000  -0.17857  -0.10714  -0.03571   0.03572   0.10714   0.17857   0.25000   0.32143   0.39286   0.46429 
<Band_DFT>  Eigen, time=0.060311
<Band_DFT>  DM, time=0.100903
    1   Sn  MulP   7.0000  7.0000 sum  14.0000
    2   Sn  MulP   7.0000  7.0000 sum  14.0000
    3   Sn  MulP   7.0000  7.0000 sum  14.0000
    4   Sn  MulP   7.0000  7.0000 sum  14.0000
 Sum of MulP: up   =    28.00000 down          =    28.00000
              total=    56.00000 ideal(neutral)=    56.00000
<DFT>  Total Spin Moment (muB) =  0.000000000000
<DFT>  Mixing_weight= 0.003000000000
<DFT>  Uele   =  -42.215716681776  dUele     =   0.000003601964
<DFT>  NormRD =    0.000000021640  Criterion =   0.000000100000

******************* MD= 1  SCF=76 *******************
<Poisson>  Poisson's equation using FFT...
<Set_Hamiltonian>  Hamiltonian matrix for VNA+dVH+Vxc...
<Band>  Solving the eigenvalue problem...
 KGrids1:  -0.43750  -0.31250  -0.18750  -0.06250   0.06250   0.18750   0.31250   0.43750 
 KGrids2:  -0.43750  -0.31250  -0.18750  -0.06250   0.06250   0.18750   0.31250   0.43750 
 KGrids3:  -0.46428  -0.39286  -0.32143  -0.25000  -0.17857  -0.10714  -0.03571   0.03572   0.10714   0.17857   0.25000   0.32143   0.39286   0.46429 
<Band_DFT>  Eigen, time=0.059861
<Band_DFT>  DM, time=0.100317
    1   Sn  MulP   7.0000  7.0000 sum  14.0000
    2   Sn  MulP   7.0000  7.0000 sum  14.0000
    3   Sn  MulP   7.0000  7.0000 sum  14.0000
    4   Sn  MulP   7.0000  7.0000 sum  14.0000
 Sum of MulP: up   =    28.00000 down          =    28.00000
              total=    56.00000 ideal(neutral)=    56.00000
<DFT>  Total Spin Moment (muB) =  0.000000000000
<DFT>  Mixing_weight= 0.003000000000
<DFT>  Uele   =  -42.215716692199  dUele     =   0.000000010423
<DFT>  NormRD =    0.000000001135  Criterion =   0.000000100000
<MD= 1>  Force calculation
  Force calculation #1
  Force calculation #2
  Force calculation #3
  Force calculation #4
  Force calculation #5
<MD= 1>  Total Energy
  Force calculation #6
  Force calculation #7

*******************************************************
                  Dipole moment (Debye)                 
*******************************************************

 Absolute D        0.00026793

                      Dx                Dy                Dz
 Total             -0.00002253       -0.00026636       -0.00001821
 Core             401.45202422      401.45202422      324.59110903
 Electron        -401.45204675     -401.45229057     -324.59112724
 Back ground       -0.00000000       -0.00000000       -0.00000000

*******************************************************
                Total Energy (Hartree) at MD = 1        
*******************************************************

  Uele  =     -42.215716692199

  Ukin  =     203.438084243187
  UH0   =   -2704.016573954927
  UH1   =       0.004923309105
  Una   =    -149.419381302912
  Unl   =     -47.915419258463
  Uxc0  =     -25.236888341144
  Uxc1  =     -25.236888341144
  Ucore =    2464.224402022720
  Uhub  =       0.000000000000
  Ucs   =       0.000000000000
  Uzs   =       0.000000000000
  Uzo   =       0.000000000000
  Uef   =       0.000000000000
  UvdW  =       0.000000000000
  Uch   =       0.000000000000
  Utot  =    -284.157741623577

  UpV   =       0.000000000000
  Enpy  =    -284.157741623577
  Note:

  Uele:   band energy
  Ukin:   kinetic energy
  UH0:    electric part of screened Coulomb energy
  UH1:    difference electron-electron Coulomb energy
  Una:    neutral atom potential energy
  Unl:    non-local potential energy
  Uxc0:   exchange-correlation energy for alpha spin
  Uxc1:   exchange-correlation energy for beta spin
  Ucore:  core-core Coulomb energy
  Uhub:   LDA+U energy
  Ucs:    constraint energy for spin orientation
  Uzs:    Zeeman term for spin magnetic moment
  Uzo:    Zeeman term for orbital magnetic moment
  Uef:    electric energy by electric field
  UvdW:   semi-empirical vdW energy 
  Uch:    penalty term to create a core hole
  UpV:    pressure times volume
  Enpy:   Enthalpy = Utot + UpV
  (see also PRB 72, 045121(2005) for the energy contributions)


*******************************************************
           Computational times (s) at MD = 1            
*******************************************************

  DFT in total      =   51.58034

  Set_OLP_Kin       =    0.83193
  Set_Nonlocal      =    1.14258
  Set_ProExpn_VNA   =    3.47203
  Set_Hamiltonian   =   18.77704
  Poisson           =    0.01532
  diagonalization   =   15.91192
  Mixing_DM         =    0.29977
  Force             =    2.28170
  Total_Energy      =    0.39845
  Set_Aden_Grid     =    0.02101
  Set_Orbitals_Grid =    0.14666
  Set_Density_Grid  =    7.62574
  RestartFileDFT    =    0.03314
  Mulliken_Charge   =    0.04018
  FFT(2D)_Density   =    0.11729

The SCF was achieved at MD=   1

*******************************************************
             MD or geometry opt. at MD = 1              
*******************************************************


outputting data on grids to files...


***********************************************************
***********************************************************
               Computational Time (second)                 
***********************************************************
***********************************************************

                               Min_ID   Min_Time       Max_ID   Max_Time
   Total Computational Time =    92       57.277         84       57.331
   readfile                 =    50        4.968         60        4.990
   truncation               =    36        0.460          0        0.565
   MD_pac                   =    78        0.007          3        0.012
   OutData                  =    48        0.000          0        0.011
   DFT                      =     3       51.579          8       51.682

*** In DFT ***

   Set_OLP_Kin              =    12        0.032          1        0.846
   Set_Nonlocal             =     1        1.127         30        1.942
   Set_ProExpn_VNA          =    37        1.393          0        3.472
   Set_Hamiltonian          =    18       18.777         53       18.777
   Poisson                  =     0        0.015         20        0.015
   Diagonalization          =   122       15.911         45       15.916
   Mixing_DM                =     8        0.300         63        0.300
   Force                    =    61        2.282         48        2.282
   Total_Energy             =     2        0.394          8        0.404
   Set_Aden_Grid            =     0        0.021          6        2.100
   Set_Orbitals_Grid        =     4        0.000          3        0.150
   Set_Density_Grid         =    19        7.563          0        7.626
   RestartFileDFT           =     0        0.033         64        0.183
   Mulliken_Charge          =     8        0.040        106        0.040
   FFT(2D)_Density          =    41        0.117        106        0.117
   Others                   =     3        0.369         38        0.758

The calculation was normally finished.

################################
##        Job Finished        ##
################################
