4
Lattice="5.919991873701783 2.5398778878276934e-18 -2.6802515713710157e-16 2.5398778878276934e-18 5.9199918737017825 1.363191040192998e-16 -1.4626239924717152e-16 7.438987977866781e-17 3.235189872051901" Properties=species:S:1:pos:R:3:energies:R:1:forces:R:3 energy=-12.340572830968956 free_energy=-12.340572830968956 stress="-1.1628191305559309e-06 -1.314030957522334e-19 -2.184439756774508e-17 -1.314030957522334e-19 -1.16281913081275e-06 -1.6347852595485203e-18 -2.184439756774508e-17 -1.6347852595485203e-18 3.776486570646249e-06" pbc="T T T"
Sn      -0.00000000      -0.00000000      -0.00000000      -3.08514321       0.00000000      -0.00000000      -0.00000000
Sn       2.95999594       2.95999594       1.61759494      -3.08514321       0.00000000       0.00000000       0.00000000
Sn      -0.00000000       2.95999594       0.80879747      -3.08514321      -0.00000000       0.00000000       0.00000000
Sn       2.95999594      -0.00000000       2.42639240      -3.08514321      -0.00000000      -0.00000000      -0.00000000
