4
Lattice="5.913996810659858 4.623065040636879e-18 -7.702285839159305e-17 4.623065040636879e-18 5.91399681065986 -2.4273497412301412e-17 -4.203168159870505e-17 -1.3246144531974457e-17 3.23667042185359" Properties=species:S:1:pos:R:3:energies:R:1:forces:R:3 energy=-12.363304191698035 free_energy=-12.363304191698035 stress="7.417439305280161e-06 3.498161164000694e-19 -2.3292848190527873e-18 3.498161164000694e-19 7.417439305906176e-06 -5.618929836674466e-18 -2.3292848190527873e-18 -5.618929836674466e-18 3.531532108061422e-06" pbc="T T T"
Sn       0.00000000       0.00000000       0.00000000      -3.09082605       0.00000000      -0.00000000       0.00000000
Sn       2.95699841       2.95699841       1.61833521      -3.09082605       0.00000000      -0.00000000       0.00000000
Sn       0.00000000       2.95699841       0.80916761      -3.09082605       0.00000000       0.00000000      -0.00000000
Sn       2.95699841       0.00000000       2.42750282      -3.09082605      -0.00000000      -0.00000000      -0.00000000
