32
Lattice="8.363654497466403 0.0 0.0 4.07680483408798e-17 3.23667042185359 0.0 0.0 0.0 61.363704365499004" Properties=species:S:1:pos:R:3:tags:I:1:energies:R:1:forces:R:3 energy=-93.54212049562238 free_energy=-93.54212049562238 stress="-0.0018567106343962865 0.00039651404204544465 1.5211404712616896e-16 0.00039651404204544465 -0.003960483592643719 3.249217608746642e-17 1.5211404712616896e-16 3.249217608746642e-17 6.013639024423003e-05" pbc="T T T"
Sn       0.00000000      -0.00000000      14.57626857        8      -1.89124084      -0.00000000      -0.00000000      -0.00176742
Sn       4.18182725       1.61833521      14.57626857        8      -1.89124084       0.00000000       0.00000000      -0.00176742
Sn       6.27274087       2.42750282      17.00914044        8      -2.95617038      -0.00000000       0.00000000       0.00638635
Sn       2.09091362       0.80916761      17.00914044        8      -2.95617038      -0.00000000      -0.00000000       0.00638635
Sn       4.18182725      -0.00000000      19.16635778        7      -3.08419500       0.00000000      -0.00000000      -0.00617185
Sn       8.36365450       1.61833521      19.16635778        7      -3.08419500       0.00000000      -0.00000000      -0.00617185
Sn       2.09091362       2.42750282      21.26826328        7      -3.09063252       0.00000000       0.00000000       0.00500241
Sn       6.27274087       0.80916761      21.26826328        7      -3.09063252      -0.00000000      -0.00000000       0.00500241
Sn       8.36365450      -0.00000000      23.36168386        6      -3.09081628      -0.00000000      -0.00000000      -0.00260660
Sn       4.18182725       1.61833521      23.36168386        6      -3.09081628      -0.00000000       0.00000000      -0.00260660
Sn       6.27274087       2.42750282      25.45321638        6      -3.09082539       0.00000000      -0.00000000       0.00113347
Sn       2.09091362       0.80916761      25.45321638        6      -3.09082539       0.00000000       0.00000000       0.00113347
Sn       4.18182725       0.00000000      27.54463096        5      -3.09082478      -0.00000000       0.00000000       0.00314770
Sn       8.36365450       1.61833521      27.54463096        5      -3.09082478       0.00000000      -0.00000000       0.00314770
Sn       2.09091362       2.42750282      29.63636475        5      -3.09082493      -0.00000000      -0.00000000      -0.00633107
Sn       6.27274087       0.80916761      29.63636475        5      -3.09082493       0.00000000      -0.00000000      -0.00633107
Sn       8.36365450      -0.00000000      31.72733962        4      -3.09082493      -0.00000000      -0.00000000       0.00633107
Sn       4.18182725       1.61833521      31.72733962        4      -3.09082493       0.00000000       0.00000000       0.00633107
Sn       6.27274087       2.42750282      33.81907341        4      -3.09082478       0.00000000       0.00000000      -0.00314770
Sn       2.09091362       0.80916761      33.81907341        4      -3.09082478      -0.00000000      -0.00000000      -0.00314770
Sn       4.18182725      -0.00000000      35.91048799        3      -3.09082539       0.00000000       0.00000000      -0.00113347
Sn       8.36365450       1.61833521      35.91048799        3      -3.09082539       0.00000000      -0.00000000      -0.00113347
Sn       2.09091362       2.42750282      38.00202050        3      -3.09081628      -0.00000000       0.00000000       0.00260660
Sn       6.27274087       0.80916761      38.00202050        3      -3.09081628       0.00000000      -0.00000000       0.00260660
Sn       8.36365450      -0.00000000      40.09544109        2      -3.09063252       0.00000000       0.00000000      -0.00500241
Sn       4.18182725       1.61833521      40.09544109        2      -3.09063252      -0.00000000      -0.00000000      -0.00500241
Sn       6.27274087       2.42750282      42.19734658        2      -3.08419500       0.00000000       0.00000000       0.00617185
Sn       2.09091362       0.80916761      42.19734658        2      -3.08419500      -0.00000000      -0.00000000       0.00617185
Sn       4.18182725      -0.00000000      44.35456392        1      -2.95617038      -0.00000000      -0.00000000      -0.00638635
Sn       8.36365450       1.61833521      44.35456392        1      -2.95617038       0.00000000       0.00000000      -0.00638635
Sn       2.09091362       2.42750282      46.78743580        1      -1.89124084      -0.00000000       0.00000000       0.00176742
Sn       6.27274087       0.80916761      46.78743580        1      -1.89124084       0.00000000       0.00000000       0.00176742
