48
Lattice="5.9199918737017825 0.0 0.0 1.4888629702031157e-16 3.235189872051901 0.0 0.0 0.0 98.0799065475705" Properties=species:S:1:pos:R:3:tags:I:1:energies:R:1:forces:R:3 energy=-146.32964537873954 free_energy=-146.32964537873954 stress="-0.00022742327726666767 -1.604848955699188e-18 -6.253173242837518e-18 -1.604848955699188e-18 -0.0007541893048168223 4.632302383814999e-17 -6.253173242837518e-18 4.632302383814999e-17 -0.0002945025785436565" pbc="T T T"
Sn       0.00000000      -0.57354267      14.91187677       12      -2.65769342      -0.00000000      -0.00125529       0.00331881
Sn       2.95999594       1.51954164      17.93705909       12      -3.07412042       0.00000000       0.00072207      -0.00329607
Sn       2.95999594       1.38234014      14.91187677       12      -2.65769342       0.00000000       0.00125529       0.00331881
Sn       0.00000000       2.52444570      17.93705909       12      -3.07412042      -0.00000000      -0.00072207      -0.00329607
Sn       0.00000000       3.21910697      20.93141991       11      -3.08442118       0.00000000       0.00531512       0.00121812
Sn       2.95999594       1.61176488      23.89802750       11      -3.08511104      -0.00000000       0.00520554      -0.00482875
Sn       2.95999594       0.82488037      20.93141991       11      -3.08442118      -0.00000000      -0.00531512       0.00121812
Sn       0.00000000       2.43222246      23.89802750       11      -3.08511104       0.00000000      -0.00520554      -0.00482875
Sn       0.00000000       3.23636143      26.85846064       10      -3.08513047       0.00000000       0.00106761      -0.00617122
Sn       2.95999594       1.61960306      29.81593838       10      -3.08513319      -0.00000000       0.00246525       0.00090573
Sn       2.95999594       0.80762591      26.85846064       10      -3.08513047      -0.00000000      -0.00106761      -0.00617122
Sn       0.00000000       2.42438428      29.81593838       10      -3.08513319       0.00000000      -0.00246525       0.00090573
Sn       0.00000000       3.23755098      32.77317620        9      -3.08512935       0.00000000       0.00257582      -0.00344951
Sn       2.95999594       1.62034550      35.72958730        9      -3.08513056      -0.00000000       0.00188404       0.00593003
Sn       2.95999594       0.80643636      32.77317620        9      -3.08512935      -0.00000000      -0.00257582      -0.00344951
Sn       0.00000000       2.42364184      35.72958730        9      -3.08513056       0.00000000      -0.00188404       0.00593003
Sn       0.00000000       3.23811744      38.68704862        8      -3.08513284       0.00000000       0.00132412      -0.00365875
Sn       2.95999594       1.62075392      41.64373064        8      -3.08513393       0.00000000       0.00049325       0.00596807
Sn       2.95999594       0.80586990      38.68704862        8      -3.08513284      -0.00000000      -0.00132412      -0.00365875
Sn       0.00000000       2.42323342      41.64373064        8      -3.08513393       0.00000000      -0.00049325       0.00596807
Sn       0.00000000       3.23875291      44.60150530        7      -3.08513770       0.00000000      -0.00196038       0.00630063
Sn       2.95999594       1.62145678      47.56045586        7      -3.08513724      -0.00000000      -0.00349790       0.00036762
Sn       2.95999594       0.80523443      44.60150530        7      -3.08513770      -0.00000000       0.00196038       0.00630063
Sn       0.00000000       2.42253056      47.56045586        7      -3.08513724       0.00000000       0.00349790       0.00036762
Sn       0.00000000       3.23905171      50.51945068        6      -3.08513724       0.00000000      -0.00349790      -0.00036762
Sn       2.95999594       1.62115797      53.47840125        6      -3.08513770      -0.00000000      -0.00196038      -0.00630063
Sn       2.95999594       0.80493563      50.51945068        6      -3.08513724      -0.00000000       0.00349790      -0.00036762
Sn       0.00000000       2.42282937      53.47840125        6      -3.08513770       0.00000000       0.00196038      -0.00630063
Sn       0.00000000       3.23834885      56.43617591        5      -3.08513393       0.00000000       0.00049325      -0.00596807
Sn       2.95999594       1.62052251      59.39285792        5      -3.08513284      -0.00000000       0.00132412       0.00365875
Sn       2.95999594       0.80563849      56.43617591        5      -3.08513393      -0.00000000      -0.00049325      -0.00596807
Sn       0.00000000       2.42346483      59.39285792        5      -3.08513284       0.00000000      -0.00132412       0.00365875
Sn       0.00000000       3.23794043      62.35031925        4      -3.08513056      -0.00000000       0.00188404      -0.00593003
Sn       2.95999594       1.61995605      65.30673035        4      -3.08512935       0.00000000       0.00257582       0.00344951
Sn       2.95999594       0.80604691      62.35031925        4      -3.08513056       0.00000000      -0.00188404      -0.00593003
Sn       0.00000000       2.42403129      65.30673035        4      -3.08512935      -0.00000000      -0.00257582       0.00344951
Sn       0.00000000       3.23719800      68.26396817        3      -3.08513319       0.00000000       0.00246525      -0.00090573
Sn       2.95999594       1.61876650      71.22144591        3      -3.08513047      -0.00000000       0.00106761       0.00617122
Sn       2.95999594       0.80678934      68.26396817        3      -3.08513319      -0.00000000      -0.00246525      -0.00090573
Sn       0.00000000       2.42522084      71.22144591        3      -3.08513047       0.00000000      -0.00106761       0.00617122
Sn       0.00000000       3.22935982      74.18187905        2      -3.08511104       0.00000000       0.00520554       0.00482875
Sn       2.95999594       1.60151203      77.14848664        2      -3.08442118      -0.00000000       0.00531512      -0.00121812
Sn       2.95999594       0.81462752      74.18187905        2      -3.08511104      -0.00000000      -0.00520554       0.00482875
Sn       0.00000000       2.44247531      77.14848664        2      -3.08442118       0.00000000      -0.00531512      -0.00121812
Sn       0.00000000       3.13713658      80.14284745        1      -3.07412042       0.00000000       0.00072207       0.00329607
Sn       2.95999594       1.04405226      83.16802978        1      -2.65769342       0.00000000      -0.00125529      -0.00331881
Sn       2.95999594       0.90685076      80.14284745        1      -3.07412042      -0.00000000      -0.00072207       0.00329607
Sn       0.00000000       2.99993508      83.16802978        1      -2.65769342      -0.00000000       0.00125529      -0.00331881
