48
Lattice="6.7417648799254986 0.0 0.0 1.5539010342671078 6.5602427753780965 0.0 0.0 0.0 60.074956206985945" Properties=species:S:1:pos:R:3:tags:I:1:energies:R:1:forces:R:3 energy=-140.71461894552363 free_energy=-140.71461894552363 stress="0.0030781665104977194 0.0010046462591829387 -0.00012372423429581706 0.0010046462591829387 0.002944210822352029 1.4655966969373787e-05 -0.00012372423429581706 1.4655966969373787e-05 1.0527304443680384e-05" pbc="T T T"
Sn      -1.09380495       0.15363751      14.19127168       12      -1.82174510       0.00163016       0.00120636      -0.00106336
Sn       3.32732310       2.73581831      15.85983476       12      -2.29260644       0.00296802      -0.00191523      -0.00598681
Sn       6.59464002       2.14287109      16.57056571       12      -2.77398086      -0.00032115      -0.00526508       0.00492328
Sn       3.75922683       6.09833485      15.14165682       12      -2.17035822       0.00093703       0.00610862       0.00284646
Sn       6.52283374       5.18726273      17.09050891       11      -2.86994027      -0.00302966       0.00556898      -0.00377651
Sn       2.02190793       1.47583761      18.85110564       11      -3.03244144      -0.00407667      -0.00212291      -0.00098290
Sn       5.01110550       1.06710381      19.20997588       11      -3.04899062      -0.00366350      -0.00079413      -0.00127572
Sn       2.77725981       5.08504765      18.20639156       11      -3.00995263      -0.00568473       0.00165142       0.00085927
Sn       5.18601443       4.08564146      19.95653398       10      -3.03547920       0.00067737      -0.00026890      -0.00174908
Sn       0.21123854       0.18215006      21.42153690       10      -3.07977440       0.00177823      -0.00335495       0.00593245
Sn       4.81424448       6.48359708      21.95727858       10      -3.07380948      -0.00063118       0.00021644      -0.00017252
Sn       1.35522709       3.75881686      20.78944470       10      -3.08538671      -0.00372911      -0.00122733       0.00038514
Sn       3.69085954       2.90172619      22.59916769        9      -3.07706929      -0.00191324       0.00083533       0.00830405
Sn       6.97319704       5.51172069      23.97956340        9      -3.08627658       0.00188931       0.00146119      -0.00008092
Sn       3.25045193       5.23807284      24.57826324        9      -3.08898245      -0.00321135      -0.00440543      -0.00119776
Sn       6.62359714       2.54188609      23.33566326        9      -3.09144290       0.00309088      -0.00146656       0.00103320
Sn       2.11894762       1.66058062      25.20359790        8      -3.08566068       0.00285860      -0.00350076      -0.00535067
Sn       5.43561294       4.29038060      26.54251927        8      -3.08995934      -0.00429375       0.00394376      -0.00118617
Sn       1.69129659       4.00213700      27.15903118        8      -3.09046061      -0.00177865       0.00370431       0.00566891
Sn       5.07666357       1.32910260      25.87017663        8      -3.09112322      -0.00344943      -0.00104513      -0.00121495
Sn       0.54558937       0.42674237      27.77712870        7      -3.08994946      -0.00244213       0.00213848      -0.00539826
Sn       3.88429862       3.07121299      29.09651068        7      -3.09075506      -0.00314070      -0.00379260       0.00488340
Sn       6.87010775       2.76872235      29.73030093        7      -3.09049371       0.00397633      -0.00231065      -0.00760357
Sn       3.52141858       0.11304259      28.42358067        7      -3.09067078      -0.00321084       0.00274729       0.00119871
Sn       7.27726824       5.75336794      30.34465527        6      -3.09049371      -0.00397633       0.00231065       0.00760357
Sn       2.33029149       1.84880492      31.65137554        6      -3.09067078       0.00321084      -0.00274729      -0.00119871
Sn       5.30612070       1.53510515      32.29782751        6      -3.08994946       0.00244213      -0.00213848       0.00539826
Sn       3.52131248       5.45087730      30.97844552        6      -3.09075506       0.00314070       0.00379260      -0.00488340
Sn       5.71431451       4.51995329      32.91592503        5      -3.09046061       0.00177865      -0.00370431      -0.00566891
Sn       0.77504650       0.63274492      34.20477957        5      -3.09112322       0.00344943       0.00104513       0.00121495
Sn       3.73276246       0.30126690      34.87135831        5      -3.08566068      -0.00285860       0.00350076       0.00535067
Sn       1.96999816       4.23170969      33.53243694        5      -3.08995934       0.00429375      -0.00394376       0.00118617
Sn       4.15515918       3.28401745      35.49669297        4      -3.08898245       0.00321135       0.00440543       0.00119776
Sn       7.52377884       5.98020420      36.73929294        4      -3.09144290      -0.00309088       0.00146656      -0.00103320
Sn       3.71475157       5.62036410      37.47578852        4      -3.07706929       0.00191324      -0.00083533      -0.00830405
Sn       7.17417895       3.01036960      36.09539280        4      -3.08627658      -0.00188931      -0.00146119       0.00008092
Sn       2.59136663       2.03849321      38.11767763        3      -3.07380948       0.00063118      -0.00021644       0.00017252
Sn       6.05038401       4.76327343      39.28551151        3      -3.08538671       0.00372911       0.00122733      -0.00038514
Sn       2.21959668       4.43644883      40.11842223        3      -3.03547920      -0.00067737       0.00026890       0.00174908
Sn       5.64047153       1.77969745      38.65341930        3      -3.07977440      -0.00177823       0.00335495      -0.00593245
Sn       0.84060457       0.89474370      40.86498033        2      -3.04899062       0.00366350       0.00079413       0.00127572
Sn       4.62835129       3.43704264      41.86856464        2      -3.00995263       0.00568473      -0.00165142      -0.00085927
Sn       7.62454225       3.33482756      42.98444730        2      -2.86994027       0.00302966      -0.00556898       0.00377651
Sn       3.82980215       0.48600991      41.22385057        2      -3.03244144       0.00407667       0.00212291       0.00098290
Sn       7.55273596       6.37921920      43.50439050        1      -2.77398086       0.00032115       0.00526508      -0.00492328
Sn       3.64638427       2.42375544      44.93329939        1      -2.17035822      -0.00093703      -0.00610862      -0.00284646
Sn       6.94551503       1.80821001      45.88368453        1      -1.82174510      -0.00163016      -0.00120636       0.00106336
Sn       4.07828801       5.78627198      44.21512145        1      -2.29260644      -0.00296802       0.00191523       0.00598681
