48
Lattice="6.7417648799254986 0.0 0.0 3.138414869177541e-17 5.91399681065986 0.0 0.0 0.0 61.94173373669642" Properties=species:S:1:pos:R:3:tags:I:1:energies:R:1:forces:R:3 energy=-141.61722110719091 free_energy=-141.61722110719091 stress="0.0008571020166856692 -1.6771899030542335e-17 -0.0006796334642018317 -1.6771899030542335e-17 0.0002097768099811826 5.672538384117075e-17 -0.0006796334642018317 5.672538384117075e-17 0.00012806938849319822" pbc="T T T"
Sn      -0.16900952      -0.00000000      14.33453864       12      -1.82590379      -0.00696180       0.00000000       0.00056689
Sn       3.20187292       2.95699841      14.33453864       12      -1.82590379      -0.00696180       0.00000000       0.00056689
Sn       6.29514545       2.95699841      15.54506127       12      -2.78963866      -0.00681365      -0.00000000      -0.00372182
Sn       2.92426301       0.00000000      15.54506127       12      -2.78963866      -0.00681365      -0.00000000      -0.00372182
Sn       5.22519227       0.00000000      17.71679596       11      -2.99588382      -0.00170962      -0.00000000       0.00018270
Sn       1.85430983       2.95699841      17.71679596       11      -2.99588382      -0.00170962       0.00000000       0.00018270
Sn       4.78941277       2.95699841      18.48977952       11      -3.07542248      -0.00197984       0.00000000       0.00734106
Sn       1.41853033       0.00000000      18.48977952       11      -3.07542248      -0.00197984       0.00000000       0.00734106
Sn       3.65393910       0.00000000      20.62346397       10      -3.08535003      -0.00624803      -0.00000000       0.00114148
Sn       0.28305666       2.95699841      20.62346397       10      -3.08535003      -0.00624803       0.00000000       0.00114148
Sn       3.26079247       2.95699841      21.38363457       10      -3.08895748      -0.00263253       0.00000000       0.00597927
Sn       6.63167491       0.00000000      21.38363457       10      -3.08895748      -0.00263253      -0.00000000       0.00597927
Sn       2.11199149       0.00000000      23.50389017        9      -3.08934595      -0.00782002      -0.00000000       0.00320049
Sn       5.48287393       2.95699841      23.50389017        9      -3.08934595      -0.00782002      -0.00000000       0.00320049
Sn       1.71301647       2.95699841      24.22701178        9      -3.09111110      -0.00386551       0.00000000      -0.00458624
Sn       5.08389891       0.00000000      24.22701178        9      -3.09111110      -0.00386551       0.00000000      -0.00458624
Sn       0.54404154       0.00000000      26.35394202        8      -3.09039280      -0.00174710       0.00000000      -0.00450482
Sn       3.91492398       2.95699841      26.35394202        8      -3.09039280      -0.00174710       0.00000000      -0.00450482
Sn       0.14994850       2.95699841      27.06716138        8      -3.09084303       0.00726073      -0.00000000      -0.00313960
Sn       3.52083094       0.00000000      27.06716138        8      -3.09084303       0.00726073      -0.00000000      -0.00313960
Sn       5.72048566      -0.00000000      29.19557024        7      -3.09068825       0.00124513      -0.00000000       0.00594206
Sn       2.34960322       2.95699841      29.19557024        7      -3.09068825       0.00124513      -0.00000000       0.00594206
Sn       5.32866028       2.95699841      29.90649729        7      -3.09076789       0.00050745       0.00000000      -0.00619362
Sn       1.95777784       0.00000000      29.90649729        7      -3.09076789       0.00050745      -0.00000000      -0.00619362
Sn       4.15701261      -0.00000000      32.03523645        6      -3.09076789      -0.00050745      -0.00000000       0.00619362
Sn       0.78613017       2.95699841      32.03523645        6      -3.09076789      -0.00050745      -0.00000000       0.00619362
Sn       3.76518722       2.95699841      32.74616350        6      -3.09068825      -0.00124513       0.00000000      -0.00594206
Sn       0.39430478      -0.00000000      32.74616350        6      -3.09068825      -0.00124513       0.00000000      -0.00594206
Sn       2.59395950      -0.00000000      34.87457236        5      -3.09084303      -0.00726073       0.00000000       0.00313960
Sn       5.96484194       2.95699841      34.87457236        5      -3.09084303      -0.00726073       0.00000000       0.00313960
Sn       2.19986646       2.95699841      35.58779171        5      -3.09039280       0.00174710      -0.00000000       0.00450482
Sn       5.57074890      -0.00000000      35.58779171        5      -3.09039280       0.00174710      -0.00000000       0.00450482
Sn       1.03089153       0.00000000      37.71472196        4      -3.09111110       0.00386551       0.00000000       0.00458624
Sn       4.40177397       2.95699841      37.71472196        4      -3.09111110       0.00386551       0.00000000       0.00458624
Sn       0.63191651       2.95699841      38.43784357        4      -3.08934595       0.00782002      -0.00000000      -0.00320049
Sn       4.00279895       0.00000000      38.43784357        4      -3.08934595       0.00782002      -0.00000000      -0.00320049
Sn       6.22488042       0.00000000      40.55809917        3      -3.08895748       0.00263253       0.00000000      -0.00597927
Sn       2.85399798       2.95699841      40.55809917        3      -3.08895748       0.00263253      -0.00000000      -0.00597927
Sn       5.83173378       2.95699841      41.31826977        3      -3.08535003       0.00624803      -0.00000000      -0.00114148
Sn       2.46085134       0.00000000      41.31826977        3      -3.08535003       0.00624803       0.00000000      -0.00114148
Sn       4.69626012       0.00000000      43.45195422        2      -3.07542248       0.00197984       0.00000000      -0.00734106
Sn       1.32537768       2.95699841      43.45195422        2      -3.07542248       0.00197984       0.00000000      -0.00734106
Sn       4.26048061       2.95699841      44.22493777        2      -2.99588382       0.00170962      -0.00000000      -0.00018270
Sn       0.88959817       0.00000000      44.22493777        2      -2.99588382       0.00170962      -0.00000000      -0.00018270
Sn       3.19052743      -0.00000000      46.39667247        1      -2.78963866       0.00681365       0.00000000       0.00372182
Sn       6.56140987       2.95699841      46.39667247        1      -2.78963866       0.00681365       0.00000000       0.00372182
Sn       2.91291753       2.95699841      47.60719510        1      -1.82590379       0.00696180      -0.00000000      -0.00056689
Sn       6.28379997      -0.00000000      47.60719510        1      -1.82590379       0.00696180      -0.00000000      -0.00056689
