32
Lattice="8.372132796927572 0.0 0.0 3.122728963665844e-16 3.235189872051901 0.0 0.0 0.0 61.3954979884784" Properties=species:S:1:pos:R:3:tags:I:1:energies:R:1:forces:R:3 energy=-95.49820465521728 free_energy=-95.49820465521728 stress="-0.0006996375977634127 0.0003711747152414615 -7.07273935173078e-18 0.0003711747152414615 -0.0013960341914126771 9.310872173525453e-18 -7.07273935173078e-18 9.310872173525453e-18 -0.0003917445320448456" pbc="T T T"
Sn       0.00000000       0.00000000      14.92565021        8      -2.28652608      -0.00000000      -0.00000000      -0.00714683
Sn       4.18606640       1.61759494      14.92565021        8      -2.28652608       0.00000000      -0.00000000      -0.00714683
Sn       6.27909960       2.42639240      17.11246481        8      -3.07728496       0.00000000      -0.00000000       0.00506289
Sn       2.09303320       0.80879747      17.11246481        8      -3.07728496      -0.00000000       0.00000000       0.00506289
Sn       4.18606640       0.00000000      19.20122087        7      -3.08512570      -0.00000000       0.00000000      -0.00572940
Sn       0.00000000       1.61759494      19.20122087        7      -3.08512570      -0.00000000      -0.00000000      -0.00572940
Sn       2.09303320       2.42639240      21.29285748        7      -3.08513657       0.00000000       0.00000000      -0.00108451
Sn       6.27909960       0.80879747      21.29285748        7      -3.08513657      -0.00000000      -0.00000000      -0.00108451
Sn       0.00000000       0.00000000      23.38390775        6      -3.08512530      -0.00000000      -0.00000000      -0.00655684
Sn       4.18606640       1.61759494      23.38390775        6      -3.08512530       0.00000000       0.00000000      -0.00655684
Sn       6.27909960       2.42639240      25.47340258        6      -3.08510965       0.00000000      -0.00000000      -0.00292595
Sn       2.09303320       0.80879747      25.47340258        6      -3.08510965      -0.00000000       0.00000000      -0.00292595
Sn       4.18606640       0.00000000      27.56218061        5      -3.08511404      -0.00000000       0.00000000       0.00535239
Sn       0.00000000       1.61759494      27.56218061        5      -3.08511404       0.00000000      -0.00000000       0.00535239
Sn       2.09303320       2.42639240      29.65228286        5      -3.08512885       0.00000000       0.00000000       0.00344945
Sn       6.27909960       0.80879747      29.65228286        5      -3.08512885      -0.00000000      -0.00000000       0.00344945
Sn      -0.00000000      -0.00000000      31.74321512        4      -3.08512885      -0.00000000      -0.00000000      -0.00344945
Sn       4.18606640       1.61759494      31.74321512        4      -3.08512885       0.00000000       0.00000000      -0.00344945
Sn       6.27909960       2.42639240      33.83331738        4      -3.08511404      -0.00000000       0.00000000      -0.00535239
Sn       2.09303320       0.80879747      33.83331738        4      -3.08511404       0.00000000       0.00000000      -0.00535239
Sn       4.18606640      -0.00000000      35.92209541        3      -3.08510965      -0.00000000      -0.00000000       0.00292595
Sn       0.00000000       1.61759494      35.92209541        3      -3.08510965       0.00000000      -0.00000000       0.00292595
Sn       2.09303320       2.42639240      38.01159024        3      -3.08512530       0.00000000      -0.00000000       0.00655684
Sn       6.27909960       0.80879747      38.01159024        3      -3.08512530      -0.00000000       0.00000000       0.00655684
Sn      -0.00000000       0.00000000      40.10264051        2      -3.08513657       0.00000000       0.00000000       0.00108451
Sn       4.18606640       1.61759494      40.10264051        2      -3.08513657      -0.00000000      -0.00000000       0.00108451
Sn       6.27909960       2.42639240      42.19427712        2      -3.08512570       0.00000000      -0.00000000       0.00572940
Sn       2.09303320       0.80879747      42.19427712        2      -3.08512570      -0.00000000       0.00000000       0.00572940
Sn       4.18606640       0.00000000      44.28303318        1      -3.07728496       0.00000000      -0.00000000      -0.00506289
Sn       0.00000000       1.61759494      44.28303318        1      -3.07728496      -0.00000000       0.00000000      -0.00506289
Sn       2.09303320       2.42639240      46.46984778        1      -2.28652608       0.00000000      -0.00000000       0.00714683
Sn       6.27909960       0.80879747      46.46984778        1      -2.28652608      -0.00000000       0.00000000       0.00714683
