48
Lattice="6.746314348807233 0.0 0.0 1.5514328219937892 6.565501769991592 0.0 0.0 0.0 60.07775142209963" Properties=species:S:1:pos:R:3:tags:I:1:energies:R:1:forces:R:3 energy=-143.05925272681122 free_energy=-143.05925272681122 stress="0.0023418668408946037 -0.00026126291216337186 -0.0001384240763599724 -0.00026126291216337186 0.0009868055765263589 4.695558354058111e-05 -0.0001384240763599724 4.695558354058111e-05 -1.7716004553851902e-05" pbc="T T T"
Sn      -0.12492204      -0.33397856      14.88695951       12      -2.15105144       0.00025802       0.00332782       0.00099501
Sn       3.19802601       2.99043573      16.00783471       12      -2.46769101      -0.00688989      -0.00256829      -0.00096125
Sn       6.18816724       2.21740383      16.73520663       12      -2.79612001      -0.00178825      -0.00557943      -0.00325932
Sn       4.58216425       6.37902285      15.57913501       12      -2.51070503      -0.00147466      -0.00365162       0.00496813
Sn       6.74098389       5.10436102      17.57605435       11      -3.06418437      -0.00037543       0.00766976       0.00079334
Sn       1.92003018       1.59315666      18.71777341       11      -3.06136879      -0.00550346       0.00612938      -0.00256936
Sn       4.87008457       1.10968874      19.34877303       11      -3.07780888      -0.00272412      -0.00365047      -0.00687593
Sn       3.00988222       5.16004619      18.35702636       11      -3.06663764       0.00497076       0.00027025      -0.00559704
Sn       5.18282525       4.03628572      20.17356103       10      -3.08154342      -0.00106715      -0.00394937       0.00105606
Sn       0.28225584       0.22359304      21.36286715       10      -3.08066893       0.00117628       0.00339665       0.00542863
Sn       4.84316984       6.50638556      21.97793064       10      -3.07852312      -0.00210822      -0.00289496       0.00493627
Sn       1.40415282       3.76086340      20.82919632       10      -3.08115098      -0.00055226       0.00038266       0.00217993
Sn       3.65131631       2.88093771      22.69443788        9      -3.08509460       0.00124530      -0.00192991       0.00041057
Sn       7.01872844       5.53938859      23.94507362        9      -3.08450440       0.00337355       0.00108175      -0.00126999
Sn       3.27663015       5.26683706      24.56499842        9      -3.08323060      -0.00211544       0.00422654      -0.00082012
Sn       6.61594610       2.53927221      23.37035155        9      -3.08236662       0.00190445       0.00257108       0.00015215
Sn       2.11505390       1.65987668      25.24476716        8      -3.08452890      -0.00108581       0.00250948      -0.00284600
Sn       5.45319635       4.30523808      26.51914419        8      -3.08479710      -0.00610819       0.00320916      -0.00031955
Sn       1.70501427       4.03324613      27.14024878        8      -3.08439547       0.00562583      -0.00179402       0.00467419
Sn       5.08020318       1.31577537      25.90225505        8      -3.08433386      -0.00094724       0.00257898      -0.00121834
Sn       0.56317517       0.43401586      27.80069615        7      -3.08461140       0.00085773       0.00059638       0.00148357
Sn       3.89430902       3.09030017      29.07870144        7      -3.08491337       0.00059548       0.00222521       0.00191600
Sn       6.88369756       2.79370557      29.71349194        7      -3.08457940      -0.00184521      -0.00278976      -0.00324064
Sn       3.54017522       0.10644165      28.44661547        7      -3.08481702      -0.00267377       0.00706702      -0.00162078
Sn       7.30223906       5.76178800      30.36425948        6      -3.08457940       0.00184521       0.00278976       0.00324064
Sn       2.34801422       1.88355014      31.63113595        6      -3.08481702       0.00267377      -0.00706702       0.00162078
Sn       5.32501428       1.55597593      32.27705527        6      -3.08461140      -0.00085773      -0.00059638      -0.00148357
Sn       3.54531325       5.46519339      30.99904998        6      -3.08491337      -0.00059548      -0.00222521      -0.00191600
Sn       5.73460799       4.52224744      32.93750265        5      -3.08439547      -0.00562583       0.00179402      -0.00467419
Sn       0.80798626       0.67421643      34.17549637        5      -3.08433386       0.00094724      -0.00257898       0.00121834
Sn       3.77313554       0.33011512      34.83298426        5      -3.08452890       0.00108581      -0.00250948       0.00284600
Sn       1.98642592       4.25025549      33.55860723        5      -3.08479710       0.00610819      -0.00320916       0.00031955
Sn       4.16299211       3.28865651      35.51275300        4      -3.08323060       0.00211544      -0.00422654       0.00082012
Sn       7.56999052       6.01622136      36.70739987        4      -3.08236662      -0.00190445      -0.00257108      -0.00015215
Sn       3.78830595       5.67455586      37.38331355        4      -3.08509460      -0.00124530       0.00192991      -0.00041057
Sn       7.16720818       3.01610497      36.13267781        4      -3.08450440      -0.00337355      -0.00108175       0.00126999
Sn       2.59645242       2.04910800      38.09982078        3      -3.07852312       0.00210822       0.00289496      -0.00493627
Sn       6.03546945       4.79463017      39.24855510        3      -3.08115098       0.00055226      -0.00038266      -0.00217993
Sn       2.25679702       4.51920785      39.90419040        3      -3.08154342       0.00106715       0.00394937      -0.00105606
Sn       5.60593360       1.76639876      38.71488427        3      -3.08066893      -0.00117628      -0.00339665      -0.00542863
Sn       1.01810487       0.88030305      40.72897839        2      -3.07780888       0.00272412       0.00365047       0.00687593
Sn       4.42974004       3.39544737      41.72072507        2      -3.06663764      -0.00497076      -0.00027025       0.00559704
Sn       7.44495272       3.45113255      42.50169707        2      -3.06418437       0.00037543      -0.00766976      -0.00079334
Sn       3.96815926       0.39683514      41.35997801        2      -3.06136879       0.00550346      -0.00612938       0.00256936
Sn       7.99776938       6.33808974      43.34254480        1      -2.79612001       0.00178825       0.00557943       0.00325932
Sn       2.85745801       2.17647072      44.49861641        1      -2.51070503       0.00147466       0.00365162      -0.00496813
Sn       6.01311148       2.32397035      45.19079192        1      -2.15105144      -0.00025802      -0.00332782      -0.00099501
Sn       4.24159626       5.56505784      44.06991672        1      -2.46769101       0.00688989       0.00256829       0.00096125
