32
Lattice="5.919991873701783 0.0 0.0 5.079755775655379e-18 5.9199918737017825 0.0 0.0 0.0 55.07272150840223" Properties=species:S:1:pos:R:3:tags:I:1:energies:R:1:forces:R:3 energy=-94.80137463673083 free_energy=-94.80137463673083 stress="0.0008205228717908478 -7.913578275873794e-19 1.223521153881931e-17 -7.913578275873794e-19 -0.0019224825011853622 -2.9246381462261684e-18 1.223521153881931e-17 -2.9246381462261684e-18 -0.00013165191746240777" pbc="T T T"
Sn       0.00000000       0.00000000      14.79154823        8      -1.98947012       0.00000000      -0.00000000       0.00170351
Sn       2.95999594       2.95999594      16.63129179        8      -2.75556147      -0.00000000       0.00000000       0.00111263
Sn       0.00000000       2.95999594      15.80723484        8      -2.79438265       0.00000000       0.00000000      -0.00705416
Sn       2.95999594       0.00000000      17.36269555        8      -2.86981868       0.00000000      -0.00000000      -0.00672349
Sn      -0.00000000       0.00000000      18.28837461        7      -3.06152298      -0.00000000      -0.00000000      -0.00383411
Sn       2.95999594       2.95999594      19.85182201        7      -3.08473102      -0.00000000       0.00000000       0.00047489
Sn       5.91999187       2.95999594      19.08262576        7      -3.08298097       0.00000000       0.00000000      -0.00519314
Sn       2.95999594      -0.00000000      20.61694733        7      -3.08415266       0.00000000      -0.00000000       0.00904016
Sn       5.91999187      -0.00000000      21.50429979        6      -3.08347416       0.00000000       0.00000000      -0.00160963
Sn       2.95999594       2.95999594      23.07878821        6      -3.08499080      -0.00000000      -0.00000000       0.00333265
Sn       5.91999187       2.95999594      22.29672152        6      -3.08504265       0.00000000      -0.00000000      -0.00443835
Sn       2.95999594      -0.00000000      23.86975401        6      -3.08487142      -0.00000000       0.00000000       0.00120225
Sn       5.91999187       0.00000000      24.73082969        5      -3.08466109       0.00000000      -0.00000000       0.00378857
Sn       2.95999594       2.95999594      26.31424367        5      -3.08500182       0.00000000       0.00000000       0.00303983
Sn       5.91999187       2.95999594      25.52410858        5      -3.08504775      -0.00000000       0.00000000       0.00227499
Sn       2.95999594       0.00000000      27.11062199        5      -3.08497708      -0.00000000      -0.00000000      -0.00426676
Sn       5.91999187      -0.00000000      27.96209952        4      -3.08497708       0.00000000      -0.00000000       0.00426676
Sn       2.95999594       2.95999594      29.54861293        4      -3.08504775      -0.00000000      -0.00000000      -0.00227499
Sn       5.91999187       2.95999594      28.75847783        4      -3.08500182       0.00000000       0.00000000      -0.00303983
Sn       2.95999594      -0.00000000      30.34189182        4      -3.08466109       0.00000000       0.00000000      -0.00378857
Sn       5.91999187      -0.00000000      31.20296750        3      -3.08487142      -0.00000000       0.00000000      -0.00120225
Sn       2.95999594       2.95999594      32.77599999        3      -3.08504265      -0.00000000      -0.00000000       0.00443835
Sn       5.91999187       2.95999594      31.99393330        3      -3.08499080       0.00000000      -0.00000000      -0.00333265
Sn       2.95999594       0.00000000      33.56842172        3      -3.08347416       0.00000000      -0.00000000       0.00160963
Sn       5.91999187       0.00000000      34.45577418        2      -3.08415266      -0.00000000      -0.00000000      -0.00904016
Sn       2.95999594       2.95999594      35.99009574        2      -3.08298097      -0.00000000      -0.00000000       0.00519314
Sn       5.91999187       2.95999594      35.22089950        2      -3.08473102       0.00000000       0.00000000      -0.00047489
Sn       2.95999594      -0.00000000      36.78434690        2      -3.06152298       0.00000000       0.00000000       0.00383411
Sn       5.91999187       0.00000000      37.71002596        1      -2.86981868      -0.00000000       0.00000000       0.00672349
Sn       2.95999594       2.95999594      39.26548667        1      -2.79438265      -0.00000000      -0.00000000       0.00705416
Sn       5.91999187       2.95999594      38.44142972        1      -2.75556147       0.00000000      -0.00000000      -0.00111263
Sn       2.95999594       0.00000000      40.28117328        1      -1.98947012       0.00000000       0.00000000      -0.00170351
