32
Lattice="5.913996810659858 0.0 0.0 9.24613008127376e-18 5.91399681065986 0.0 0.0 0.0 55.084195769365316" Properties=species:S:1:pos:R:3:tags:I:1:energies:R:1:forces:R:3 energy=-93.23182469589678 free_energy=-93.23182469589678 stress="-8.344382866688767e-05 2.1519835091229025e-19 1.6592895859437444e-18 2.1519835091229025e-19 0.0003005247772991932 3.477665099243583e-18 1.6592895859437444e-18 3.477665099243583e-18 5.476472239487242e-06" pbc="T T T"
Sn      -0.00000000       0.00000000      14.36281175        8      -1.85170164      -0.00000000      -0.00000000       0.00276441
Sn       2.95699841       2.95699841      16.38592257        8      -2.55511740       0.00000000      -0.00000000       0.00154437
Sn      -0.00000000       2.95699841      15.46997936        8      -2.62490302      -0.00000000       0.00000000      -0.00479070
Sn       2.95699841       0.00000000      17.21818147        8      -2.71840462      -0.00000000       0.00000000       0.00356196
Sn       0.00000000      -0.00000000      18.11645760        7      -2.98464475       0.00000000       0.00000000       0.00281351
Sn       2.95699841       2.95699841      19.81696856        7      -3.05670730      -0.00000000      -0.00000000      -0.00516654
Sn      -0.00000000       2.95699841      18.99285590        7      -3.03950872       0.00000000       0.00000000      -0.00173788
Sn       2.95699841      -0.00000000      20.61158374        7      -3.07076838      -0.00000000       0.00000000       0.00424880
Sn      -0.00000000       0.00000000      21.44925887        6      -3.08443171       0.00000000       0.00000000      -0.00063092
Sn       2.95699841       2.95699841      23.08228209        6      -3.08942085      -0.00000000      -0.00000000       0.00239757
Sn      -0.00000000       2.95699841      22.28141455        6      -3.08813630       0.00000000      -0.00000000      -0.00939311
Sn       2.95699841       0.00000000      23.88288611        6      -3.08952995      -0.00000000       0.00000000      -0.00760006
Sn       0.00000000       0.00000000      24.70856655        5      -3.09045593       0.00000000       0.00000000       0.00528212
Sn       2.95699841       2.95699841      26.32192326        5      -3.09078802       0.00000000       0.00000000       0.00969281
Sn       0.00000000       2.95699841      25.52468982        5      -3.09073404      -0.00000000      -0.00000000       0.00842583
Sn       2.95699841       0.00000000      27.13062732        5      -3.09065974       0.00000000      -0.00000000      -0.00471124
Sn       0.00000000       0.00000000      27.95356845        4      -3.09065974      -0.00000000       0.00000000       0.00471124
Sn       2.95699841       2.95699841      29.55950595        4      -3.09073404      -0.00000000       0.00000000      -0.00842583
Sn      -0.00000000       2.95699841      28.76227251        4      -3.09078802       0.00000000      -0.00000000      -0.00969281
Sn       2.95699841      -0.00000000      30.37562922        4      -3.09045593       0.00000000      -0.00000000      -0.00528212
Sn       5.91399681       0.00000000      31.20130966        3      -3.08952995      -0.00000000       0.00000000       0.00760006
Sn       2.95699841       2.95699841      32.80278122        3      -3.08813630      -0.00000000       0.00000000       0.00939311
Sn      -0.00000000       2.95699841      32.00191368        3      -3.08942085       0.00000000      -0.00000000      -0.00239757
Sn       2.95699841       0.00000000      33.63493690        3      -3.08443171      -0.00000000       0.00000000       0.00063092
Sn       5.91399681       0.00000000      34.47261203        2      -3.07076838       0.00000000       0.00000000      -0.00424880
Sn       2.95699841       2.95699841      36.09133987        2      -3.03950872      -0.00000000      -0.00000000       0.00173788
Sn       5.91399681       2.95699841      35.26722721        2      -3.05670730       0.00000000      -0.00000000       0.00516654
Sn       2.95699841      -0.00000000      36.96773817        2      -2.98464475       0.00000000       0.00000000      -0.00281351
Sn       5.91399681       0.00000000      37.86601430        1      -2.71840462      -0.00000000       0.00000000      -0.00356196
Sn       2.95699841       2.95699841      39.61421641        1      -2.62490302      -0.00000000      -0.00000000       0.00479070
Sn       5.91399681       2.95699841      38.69827319        1      -2.55511740       0.00000000      -0.00000000      -0.00154437
Sn       2.95699841       0.00000000      40.72138402        1      -1.85170164      -0.00000000       0.00000000      -0.00276441
