48
Lattice="5.91399681065986 0.0 0.0 -2.6530783266936782e-17 3.23667042185359 0.0 0.0 0.0 98.01096332258837" Properties=species:S:1:pos:R:3:tags:I:1:energies:R:1:forces:R:3 energy=-145.07096132668144 free_energy=-145.07096132668144 stress="-0.0016758620941774121 -7.20491230096427e-18 -5.294666271381055e-18 -7.20491230096427e-18 -0.004109205537980703 -6.096989895897963e-17 -5.294666271381055e-18 -6.096989895897963e-17 -0.0010089859947048764" pbc="T T T"
Sn      -0.00000000      -0.39372028      14.74862083       12      -2.31485694       0.00000000       0.00242217      -0.00383461
Sn       2.95699841       1.45634248      17.91162282       12      -3.05023205       0.00000000      -0.00674442       0.00098884
Sn       2.95699841       1.20288789      14.74862083       12      -2.31485694      -0.00000000      -0.00242217      -0.00383461
Sn      -0.00000000       2.58949555      17.91162282       12      -3.05023205      -0.00000000       0.00674442       0.00098884
Sn       0.00000000      -0.05515269      20.93695443       11      -3.08642935       0.00000000       0.00224410       0.00103616
Sn       2.95699841       1.60879638      23.91672859       11      -3.09019190      -0.00000000      -0.00099498      -0.00872752
Sn       2.95699841       0.86432030      20.93695443       11      -3.08642935      -0.00000000      -0.00224410       0.00103616
Sn       0.00000000       2.43704165      23.91672859       11      -3.09019190       0.00000000       0.00099498      -0.00872752
Sn       0.00000000       3.24087232      26.87723456       10      -3.09073418      -0.00000000      -0.00393499      -0.00302721
Sn       2.95699841       1.62699887      29.83044616       10      -3.09076708       0.00000000      -0.00488445      -0.00066911
Sn       2.95699841       0.80496571      26.87723456       10      -3.09073418      -0.00000000       0.00393499      -0.00302721
Sn       0.00000000       2.41883916      29.83044616       10      -3.09076708      -0.00000000       0.00488445      -0.00066911
Sn       0.00000000       3.24722473      32.78092005        9      -3.09074185      -0.00000000      -0.00462734      -0.00603291
Sn       2.95699841       1.62877049      35.72998265        9      -3.09073648       0.00000000      -0.00289770      -0.00002527
Sn       2.95699841       0.79861329      32.78092005        9      -3.09074185       0.00000000       0.00462734      -0.00603291
Sn       0.00000000       2.41706754      35.72998265        9      -3.09073648      -0.00000000       0.00289770      -0.00002527
Sn       0.00000000       3.24571732      38.67911548        8      -3.09074893       0.00000000      -0.00109472       0.00233472
Sn       2.95699841       1.62550323      41.62901386        8      -3.09076171       0.00000000       0.00158491      -0.00425160
Sn       2.95699841       0.80012071      38.67911548        8      -3.09074893      -0.00000000       0.00109472       0.00233472
Sn       0.00000000       2.42033480      41.62901386        8      -3.09076171      -0.00000000      -0.00158491      -0.00425160
Sn       0.00000000       3.24215112      44.57922680        7      -3.09076680      -0.00000000       0.00427750      -0.00041296
Sn       2.95699841       1.62285961      47.52991673        7      -3.09077307       0.00000000       0.00519470       0.00296181
Sn       2.95699841       0.80368691      44.57922680        7      -3.09076680       0.00000000      -0.00427750      -0.00041296
Sn      -0.00000000       2.42297841      47.52991673        7      -3.09077307       0.00000000      -0.00519470       0.00296181
Sn      -0.00000000       3.24119482      50.48104659        6      -3.09077307       0.00000000       0.00519470      -0.00296181
Sn       2.95699841       1.62381591      53.43173652        6      -3.09076680      -0.00000000       0.00427750       0.00041296
Sn       2.95699841       0.80464320      50.48104659        6      -3.09077307      -0.00000000      -0.00519470      -0.00296181
Sn       0.00000000       2.42202212      53.43173652        6      -3.09076680       0.00000000      -0.00427750       0.00041296
Sn       0.00000000       3.24383844      56.38194946        5      -3.09076171       0.00000000       0.00158491       0.00425160
Sn       2.95699841       1.62738211      59.33184785        5      -3.09074893      -0.00000000      -0.00109472      -0.00233472
Sn       2.95699841       0.80199959      56.38194946        5      -3.09076171      -0.00000000      -0.00158491       0.00425160
Sn       0.00000000       2.41845592      59.33184785        5      -3.09074893       0.00000000       0.00109472      -0.00233472
Sn       0.00000000       3.24710570      62.28098067        4      -3.09073648      -0.00000000      -0.00289770       0.00002527
Sn       2.95699841       1.62888952      65.23004327        4      -3.09074185      -0.00000000      -0.00462734       0.00603291
Sn       2.95699841       0.79873233      62.28098067        4      -3.09073648       0.00000000       0.00289770       0.00002527
Sn       0.00000000       2.41694851      65.23004327        4      -3.09074185       0.00000000       0.00462734       0.00603291
Sn       0.00000000       3.24533408      68.18051716        3      -3.09076708       0.00000000      -0.00488445       0.00066911
Sn       2.95699841       1.62253711      71.13372876        3      -3.09073418      -0.00000000      -0.00393499       0.00302721
Sn       2.95699841       0.80050395      68.18051716        3      -3.09076708      -0.00000000       0.00488445       0.00066911
Sn       0.00000000       2.42330092      71.13372876        3      -3.09073418       0.00000000       0.00393499       0.00302721
Sn       0.00000000       3.22713159      74.09423474        2      -3.09019190      -0.00000000      -0.00099498       0.00872752
Sn       2.95699841       1.56318252      77.07400889        2      -3.08642935       0.00000000       0.00224410      -0.00103616
Sn       2.95699841       0.81870644      74.09423474        2      -3.09019190      -0.00000000       0.00099498       0.00872752
Sn      -0.00000000       2.48265551      77.07400889        2      -3.08642935      -0.00000000      -0.00224410      -0.00103616
Sn      -0.00000000       3.07467769      80.09934051        1      -3.05023205      -0.00000000      -0.00674442      -0.00098884
Sn       2.95699841       1.22461493      83.26234249        1      -2.31485694       0.00000000       0.00242217       0.00383461
Sn       2.95699841       0.97116034      80.09934051        1      -3.05023205       0.00000000       0.00674442      -0.00098884
Sn      -0.00000000       2.82122310      83.26234249        1      -2.31485694      -0.00000000      -0.00242217       0.00383461
