48
Lattice="6.746314348807233 0.0 0.0 -1.2619239358510517e-16 5.9199918737017825 0.0 0.0 0.0 61.93793508197956" Properties=species:S:1:pos:R:3:tags:I:1:energies:R:1:forces:R:3 energy=-144.0073440916696 free_energy=-144.0073440916696 stress="0.0015754396947257204 -3.725501644850289e-18 -9.834671855662766e-05 -3.725501644850289e-18 -0.0009961187549850784 -2.609318258341598e-18 -9.834671855662766e-05 -2.609318258341598e-18 -0.00029102476415451513" pbc="T T T"
Sn      -0.05874861       0.00000000      14.81482405       12      -2.28409399       0.00296074       0.00000000      -0.00524851
Sn       3.31440856       2.95999594      14.81482405       12      -2.28409399       0.00296074      -0.00000000      -0.00524851
Sn       6.29762562       2.95999594      15.71915683       12      -2.88202244      -0.00371528      -0.00000000      -0.00474678
Sn       2.92446844       0.00000000      15.71915683       12      -2.88202244      -0.00371528       0.00000000      -0.00474678
Sn       5.23736651      -0.00000000      17.86105302       11      -3.07007604       0.00028721       0.00000000       0.00493298
Sn       1.86420933       2.95999594      17.86105302       11      -3.07007604       0.00028721      -0.00000000       0.00493298
Sn       4.83236693       2.95999594      18.55649798       11      -3.08481247       0.00069378      -0.00000000      -0.00066171
Sn       1.45920976      -0.00000000      18.55649798       11      -3.08481247       0.00069378       0.00000000      -0.00066171
Sn       3.65810645       0.00000000      20.68948134       10      -3.08512431      -0.00261618       0.00000000      -0.00297669
Sn       0.28494927       2.95999594      20.68948134       10      -3.08512431      -0.00261618      -0.00000000      -0.00297669
Sn       3.27543595       2.95999594      21.40535978       10      -3.08502336      -0.00347625      -0.00000000      -0.00483221
Sn       6.64859312      -0.00000000      21.40535978       10      -3.08502336      -0.00347625       0.00000000      -0.00483221
Sn       2.11044463      -0.00000000      23.53368493        9      -3.08501313      -0.00278697       0.00000000      -0.00506236
Sn       5.48360180       2.95999594      23.53368493        9      -3.08501313      -0.00278697      -0.00000000      -0.00506236
Sn       1.72049834       2.95999594      24.23320599        9      -3.08519205       0.00019508      -0.00000000       0.00170422
Sn       5.09365551       0.00000000      24.23320599        9      -3.08519205       0.00019508       0.00000000       0.00170422
Sn       0.54757159       0.00000000      26.36526707        8      -3.08512720       0.00019640       0.00000000       0.00390193
Sn       3.92072876       2.95999594      26.36526707        8      -3.08512720       0.00019640      -0.00000000       0.00390193
Sn       0.16135196       2.95999594      27.06820705        8      -3.08509931       0.00170398      -0.00000000      -0.00242353
Sn       3.53450914      -0.00000000      27.06820705        8      -3.08509931       0.00170398       0.00000000      -0.00242353
Sn       5.73681915      -0.00000000      29.20024532        7      -3.08511947       0.00356695       0.00000000       0.00438139
Sn       2.36366198       2.95999594      29.20024532        7      -3.08511947       0.00356695      -0.00000000       0.00438139
Sn       5.35069348       2.95999594      29.90191293        7      -3.08513225       0.00123677      -0.00000000       0.00699413
Sn       1.97753630      -0.00000000      29.90191293        7      -3.08513225       0.00123677       0.00000000       0.00699413
Sn       4.18094467       0.00000000      32.03602215        6      -3.08513225      -0.00123677       0.00000000      -0.00699413
Sn       0.80778750       2.95999594      32.03602215        6      -3.08513225      -0.00123677      -0.00000000      -0.00699413
Sn       3.79481900       2.95999594      32.73768977        6      -3.08511947      -0.00356695      -0.00000000      -0.00438139
Sn       0.42166182       0.00000000      32.73768977        6      -3.08511947      -0.00356695       0.00000000      -0.00438139
Sn       2.62397184      -0.00000000      34.86972803        5      -3.08509931      -0.00170398       0.00000000       0.00242353
Sn       5.99712901       2.95999594      34.86972803        5      -3.08509931      -0.00170398      -0.00000000       0.00242353
Sn       2.23775221       2.95999594      35.57266801        5      -3.08512720      -0.00019640      -0.00000000      -0.00390193
Sn       5.61090939       0.00000000      35.57266801        5      -3.08512720      -0.00019640       0.00000000      -0.00390193
Sn       1.06482546      -0.00000000      37.70472909        4      -3.08519205      -0.00019508       0.00000000      -0.00170422
Sn       4.43798264       2.95999594      37.70472909        4      -3.08519205      -0.00019508      -0.00000000      -0.00170422
Sn       0.67487917       2.95999594      38.40425015        4      -3.08501313       0.00278697      -0.00000000       0.00506236
Sn       4.04803635      -0.00000000      38.40425015        4      -3.08501313       0.00278697       0.00000000       0.00506236
Sn       6.25620220      -0.00000000      40.53257530        3      -3.08502336       0.00347625       0.00000000       0.00483221
Sn       2.88304502       2.95999594      40.53257530        3      -3.08502336       0.00347625      -0.00000000       0.00483221
Sn       5.87353170       2.95999594      41.24845374        3      -3.08512431       0.00261618      -0.00000000       0.00297669
Sn       2.50037453       0.00000000      41.24845374        3      -3.08512431       0.00261618       0.00000000       0.00297669
Sn       4.69927121      -0.00000000      43.38143711        2      -3.08481247      -0.00069378       0.00000000       0.00066171
Sn       1.32611404       2.95999594      43.38143711        2      -3.08481247      -0.00069378      -0.00000000       0.00066171
Sn       4.29427164       2.95999594      44.07688206        2      -3.07007604      -0.00028721      -0.00000000      -0.00493298
Sn       0.92111447      -0.00000000      44.07688206        2      -3.07007604      -0.00028721       0.00000000      -0.00493298
Sn       3.23401253      -0.00000000      46.21877825        1      -2.88202244       0.00371528       0.00000000       0.00474678
Sn       6.60716970       2.95999594      46.21877825        1      -2.88202244       0.00371528      -0.00000000       0.00474678
Sn       2.84407241       2.95999594      47.12311103        1      -2.28409399      -0.00296074      -0.00000000       0.00524851
Sn       6.21722959      -0.00000000      47.12311103        1      -2.28409399      -0.00296074      -0.00000000       0.00524851
